<?xml version="1.0"?>
<VTKFile type="UnstructuredGrid"  version="0.1"  >
<UnstructuredGrid>
<Piece  NumberOfPoints="1239" NumberOfCells="2337">
<Points>
<DataArray  type="Float64"  NumberOfComponents="3"  format="ascii">40 0 0  20 0 0  20 10.74225260999363 0  23.37632262758564 8.205736415742253 0  23.37632262758564 12.5 0  40 12.5 0  39.5 0 0  39 0 0  38.5 0 0  38 0 0  37.5 0 0  37 0 0  36.5 0 0  36 0 0  35.5 0 0  35 0 0  34.5 0 0  34 0 0  33.5 0 0  33 0 0  32.5 0 0  32 0 0  31.5 0 0  31 0 0  30.5 0 0  30 0 0  29.5 0 0  29 0 0  28.5 0 0  28 0 0  27.5 0 0  27 0 0  26.5 0 0  26 0 0  25.5 0 0  25 0 0  24.5 0 0  24 0 0  23.5 0 0  23 0 0  22.5 0 0  22 0 0  21.5 0 0  21 0 0  20.5 0 0  20 0.4882842095451652 0  20 0.9765684190903303 0  20 1.464852628635495 0  20 1.953136838180661 0  20 2.441421047725826 0  20 2.929705257270991 0  20 3.417989466816156 0  20 3.906273676361321 0  20 4.394557885906487 0  20 4.882842095451652 0  20 5.371126304996817 0  20 5.859410514541982 0  20 6.347694724087147 0  20 6.835978933632312 0  20 7.324263143177477 0  20 7.812547352722643 0  20 8.300831562267808 0  20 8.789115771812973 0  20 9.277399981358139 0  20 9.765684190903304 0  20 10.25396840044847 0  20.37514695862063 10.46041747729904 0  20.75029391724125 10.17858234460444 0  21.12544087586188 9.89674721190984 0  21.50058783448251 9.614912079215243 0  21.87573479310313 9.333076946520643 0  22.25088175172376 9.051241813826046 0  22.62602871034438 8.769406681131448 0  23.00117566896501 8.487571548436851 0  23.37632262758564 8.682876813993113 0  23.37632262758564 9.160017212243975 0  23.37632262758564 9.637157610494835 0  23.37632262758564 10.1142980087457 0  23.37632262758564 10.59143840699656 0  23.37632262758564 11.06857880524742 0  23.37632262758564 11.54571920349828 0  23.37632262758564 12.02285960174914 0  23.86525431500959 12.5 0  24.35418600243354 12.5 0  24.84311768985749 12.5 0  25.33204937728144 12.5 0  25.8209810647054 12.5 0  26.30991275212935 12.5 0  26.7988444395533 12.5 0  27.28777612697725 12.5 0  27.7767078144012 12.5 0  28.26563950182516 12.5 0  28.75457118924911 12.5 0  29.24350287667306 12.5 0  29.73243456409701 12.5 0  30.22136625152096 12.5 0  30.71029793894492 12.5 0  31.19922962636887 12.5 0  31.68816131379282 12.5 0  32.17709300121677 12.5 0  32.66602468864073 12.5 0  33.15495637606467 12.5 0  33.64388806348862 12.5 0  34.13281975091257 12.5 0  34.62175143833653 12.5 0  35.11068312576048 12.5 0  35.59961481318443 12.5 0  36.08854650060839 12.5 0  36.57747818803234 12.5 0  37.06640987545629 12.5 0  37.55534156288024 12.5 0  38.04427325030419 12.5 0  38.53320493772814 12.5 0  39.0221366251521 12.5 0  39.51106831257605 12.5 0  40 12 0  40 11.5 0  40 11 0  40 10.5 0  40 10 0  40 9.5 0  40 9 0  40 8.5 0  40 8 0  40 7.5 0  40 7 0  40 6.5 0  40 6 0  40 5.5 0  40 5 0  40 4.5 0  40 4 0  40 3.5 0  40 3 0  40 2.5 0  40 2 0  40 1.5 0  40 1 0  40 0.5 0  33.37626578254203 12.10427516359001 0  30.93521788517177 12.08780456604426 0  29.26328245846467 0.4252343768127043 0  32.30075827202473 0.4105442303473161 0  39.52583708618275 6.264702410173379 0  28.50892842147368 12.062321774697 0  34.72465066758162 0.4072531707317157 0  26.75827956466919 0.4278559554778081 0  35.36441054632469 12.12303620334173 0  24.75266337965626 0.4144082953330557 0  23.78560247643558 8.445435990549363 0  23.78367744826492 7.970933548908889 0  24.20005363021513 8.217910153716645 0  24.18549101052497 7.722119156606428 0  24.61017245678741 7.98123821474243 0  24.59470612850661 7.482070914975122 0  25.01693835150974 7.735825129323268 0  39.56811115989766 4.270575678309097 0  25.01568310392802 7.256497817509228 0  25.42995995827829 7.510661554348715 0  39.51748360653034 8.263558244122114 0  25.43095033287227 7.019634676651616 0  25.84607202044361 7.258963684039199 0  25.84619705055497 6.779162571483492 0  26.26630879009896 7.024087190293846 0  26.26366118167494 6.538420220582076 0  26.68535183976704 6.784258052878488 0  25.42977010976016 6.538936198394196 0  20.38433733181851 3.643476722331743 0  26.68253610723906 6.295739436849165 0  27.10222329989329 6.537828437643176 0  27.10181480061692 6.051900109700394 0  27.52202698735046 6.294340248223379 0  27.52214804409746 5.808175910755235 0  27.94382688096388 6.051351934249529 0  27.94345765919737 6.538110646816071 0  28.3656991906881 6.295145654939155 0  28.36700370290074 6.789941151868885 0  28.78954000360118 6.542593318603493 0  28.78862371090248 6.051729017949414 0  29.21281411754431 6.298394085981 0  29.21189620463458 5.80739029856981 0  29.63543043779325 6.052172595303602 0  29.63982889397066 6.548988771367631 0  30.0599266695861 6.298326337124637 0  30.05966968033208 5.807246253929149 0  30.48395739311459 6.052791169038667 0  30.4831007606944 6.542991951653938 0  30.90828582579434 6.298422555710946 0  30.90858383463036 6.794428820508343 0  31.33456803404759 6.547457400941745 0  31.33428052629122 6.054012127786927 0  31.76084077173279 6.302338936144865 0  31.76073294432907 5.808697538375831 0  32.18638410387816 6.055334686991912 0  32.18873565997975 6.553004490397502 0  32.61382302454919 6.30457712538366 0  32.61403758747257 5.810063447513747 0  33.04021671482614 6.057202939582293 0  33.04002723513642 6.553216526498235 0  33.46481721254963 6.307386237431841 0  33.48112122829918 5.821613858394546 0  33.46517714023012 6.799798454922304 0  33.89278871101513 6.551288666404442 0  27.10080773492528 5.565145667021338 0  36.72705191148338 0.4229247801821643 0  33.8917047884827 7.045244751634772 0  34.31796446094307 6.802083793177427 0  26.2664050186817 7.52688101116601 0  34.31828168350602 7.29343738464568 0  23.77193074969825 7.495141121483146 0  33.46456850858213 7.294365912501266 0  23.30130890165482 0.4516426304935672 0  39.54038597817099 9.761540829430579 0  30.74861367895024 0.4085308340280145 0  36.79756462539704 12.10597384408623 0  20.400002690175 5.11663558597874 0  34.74638384918858 7.047434172869364 0  34.76056272427081 6.566545407745076 0  34.74547551100882 7.540807409264047 0  27.07193776571973 12.03056433074561 0  35.173787037022 7.294699691624176 0  35.17254314370987 7.788590489836294 0  25.02409580279239 8.252191204621198 0  39.56698729810778 2.749999999999999 0  34.74442993991319 8.034275141394644 0  35.17106049187109 8.282151936689811 0  35.60112710604692 7.542674698677555 0  25.55339522805538 12.09008194725237 0  27.52229899090566 5.320871090184953 0  27.09928314122173 5.077212321481755 0  27.52217635338158 4.832631767737374 0  27.09822353785714 4.588495745998546 0  27.52208722911622 4.343419580830648 0  27.09779048918112 4.099138052926977 0  26.67377154328109 4.344455832010121 0  26.67309978337218 3.854751078371803 0  26.24048386568069 4.104526144121458 0  34.74322345342731 8.527704661053702 0  27.52157230138063 3.853032520940172 0  20.41565615541815 2.19497839290039 0  20.41336463420303 6.592459511683303 0  35.16954492582485 8.775323558290433 0  26.24600496784772 3.612547913901741 0  25.81211377067685 3.858907205790541 0  34.74208756939584 9.020443431751136 0  23.77536196185731 10.3583178907986 0  25.82000027421292 3.368055716134639 0  25.3946444778424 3.610190292485001 0  35.16814547734129 9.268090320730474 0  35.59540981587372 9.023071852328092 0  27.94694773029879 4.098281370883472 0  27.94653573963201 3.606709783548585 0  28.37313199324644 3.852806501658441 0  28.3729551186546 3.360866538603501 0  28.79964342054901 3.606883430813289 0  27.94626216862341 3.114841484910873 0  22.92932042985398 7.992591388629323 0  38.2271648964597 12.03988563565197 0  34.74116340558095 9.513214973095726 0  34.31523567072719 9.265786452485417 0  38.24002482696691 0.4317231685399427 0  35.59411323332104 9.515790272606999 0  36.02159582963662 9.270629471800298 0  25.39443249042329 3.124708016926854 0  24.97302404314557 3.369602770347608 0  24.96925776517335 3.855456164082091 0  24.55002426332692 3.616687696889229 0  24.54669051584015 4.103418400875257 0  24.12613546783885 3.861271154637259 0  24.12441130938031 4.34861052625981 0  23.70341107664417 4.105340831381119 0  23.70503521171213 3.618849236306285 0  23.70217993119338 4.592919973083803 0  23.28176394440236 4.350301872025227 0  23.28314746609995 4.837326979933188 0  28.79972013435918 3.113731661447213 0  29.22749105295706 3.360491811550938 0  29.22726371152746 2.866290945587772 0  29.65577870125087 3.113497261033004 0  25.81020141826135 2.879045237826424 0  24.9757820349289 2.885874784160309 0  22.86068392074281 4.595146181331431 0  22.86027467471998 5.082170271186005 0  21.75 0.4330127018922196 0  34.31431297295494 9.757982501924523 0  33.88876577668254 9.510844551351955 0  36.02000759353937 9.76344590841574 0  36.44799747735615 9.518392104294911 0  36.44953968661531 9.024817735755514 0  36.87695314309602 9.273216045929711 0  36.87828886106747 8.778378730944258 0  36.87506588447478 9.768279069252705 0  37.30639696281036 9.027417428982929 0  37.30771634086358 8.531763425673935 0  29.65551406255158 2.618511905544416 0  30.08427286626826 2.865996248567493 0  30.08435791817865 3.361043484836758 0  30.51298595429925 3.113615652570787 0  30.51282084862673 3.608527302955655 0  30.94182616707402 3.361271157133923 0  30.94195183523517 2.865896807202352 0  31.37118167322625 3.113836465156682 0  23.70195558581936 5.081724073257226 0  31.37122460704478 2.618050417594738 0  31.80071853680607 2.866287398810719 0  31.80037496401754 3.362291530213605 0  32.23124963902222 3.112989222458392 0  32.23049317181321 2.618016954725898 0  32.66051890470695 2.866624664503422 0  32.65925391412662 3.362312731232674 0  33.09100714614508 3.113823015110548 0  33.09091389047867 2.618725893752514 0  33.52066810944426 2.867834981612967 0  33.52090652352368 3.362643451132198 0  33.95038699745218 3.116921241503165 0  33.95028920259186 3.614697303444826 0  34.37987945619395 3.366366919684987 0  34.37948553454609 3.863931625274567 0  34.80972088092733 3.615729245482159 0  34.8105509149082 3.118556847102256 0  35.24055854693042 3.367894198485905 0  35.2395292623242 3.865057999432413 0  35.6
[...]
<PointData  Vectors="u"> 
<DataArray  type="Float64"  Name="u"  NumberOfComponents="3" format="ascii">2.6027497089378682e-01 2.1794267222600087e-02 0.0000000000000000e+00  2.8915971522914419e-01 -9.6950012642621722e-02 0.0000000000000000e+00  6.8699970042505512e-02 -1.5379472249263004e-01 0.0000000000000000e+00  1.8805237573708045e-01 -3.6932954753074461e-02 0.0000000000000000e+00  2.1244965815417147e-01 0.0000000000000000e+00 0.0000000000000000e+00  2.3116401088773322e-01 0.0000000000000000e+00 0.0000000000000000e+00  2.5976906857895887e-01 2.0541411807906196e-02 0.0000000000000000e+00  2.5925452298193480e-01 1.9305918326969710e-02 0.0000000000000000e+00  2.5874048445418507e-01 1.8110685298308216e-02 0.0000000000000000e+00  2.5824637970378705e-01 1.6966658452315056e-02 0.0000000000000000e+00  2.5778833189373468e-01 1.5891618279746462e-02 0.0000000000000000e+00  2.5736973146595427e-01 1.4887097490721089e-02 0.0000000000000000e+00  2.5702313861874193e-01 1.3916839773781473e-02 0.0000000000000000e+00  2.5675786207889512e-01 1.2992251060932157e-02 0.0000000000000000e+00  2.5658261603507621e-01 1.2108914603819293e-02 0.0000000000000000e+00  2.5651219140770920e-01 1.1238966363604431e-02 0.0000000000000000e+00  2.5656126816203950e-01 1.0363951882232745e-02 0.0000000000000000e+00  2.5673646825506669e-01 9.4854558655781736e-03 0.0000000000000000e+00  2.5701250839816397e-01 8.5739579942130818e-03 0.0000000000000000e+00  2.5742674042099456e-01 7.5913130830140216e-03 0.0000000000000000e+00  2.5799195160253596e-01 6.5519732026621839e-03 0.0000000000000000e+00  2.5870063484420286e-01 5.4130128018280762e-03 0.0000000000000000e+00  2.5955110505134776e-01 4.1491807282601177e-03 0.0000000000000000e+00  2.6056718736715884e-01 2.7481233333066712e-03 0.0000000000000000e+00  2.6172658048933484e-01 1.1652004935079464e-03 0.0000000000000000e+00  2.6304131839565364e-01 -6.0059130319542779e-04 0.0000000000000000e+00  2.6449614125718057e-01 -2.6132142771584290e-03 0.0000000000000000e+00  2.6609561523461506e-01 -4.8818501736660599e-03 0.0000000000000000e+00  2.6783379926055967e-01 -7.4331214923193528e-03 0.0000000000000000e+00  2.6966729025118930e-01 -1.0303022347109121e-02 0.0000000000000000e+00  2.7162278788495658e-01 -1.3509978566384966e-02 0.0000000000000000e+00  2.7363087276040987e-01 -1.7107099558679187e-02 0.0000000000000000e+00  2.7568182744873454e-01 -2.1096779676484885e-02 0.0000000000000000e+00  2.7772491946534522e-01 -2.5483214528968900e-02 0.0000000000000000e+00  2.7973537825868383e-01 -3.0268643644080405e-02 0.0000000000000000e+00  2.8164814382872944e-01 -3.5451374017360725e-02 0.0000000000000000e+00  2.8343114256361002e-01 -4.1019955070883483e-02 0.0000000000000000e+00  2.8500988831641000e-01 -4.6900395868299659e-02 0.0000000000000000e+00  2.8639126040993507e-01 -5.3108108003600572e-02 0.0000000000000000e+00  2.8748060176909251e-01 -5.9442453780240864e-02 0.0000000000000000e+00  2.8829129690202171e-01 -6.5896139442752674e-02 0.0000000000000000e+00  2.8882714781136681e-01 -7.2384737744796743e-02 0.0000000000000000e+00  2.8910131192262062e-01 -7.8773967778409185e-02 0.0000000000000000e+00  2.8919450239982630e-01 -8.4995977456083296e-02 0.0000000000000000e+00  2.8918342806959035e-01 -9.1041401511954681e-02 0.0000000000000000e+00  2.8340268960452097e-01 -9.6926789158447768e-02 0.0000000000000000e+00  2.7776753803549831e-01 -9.6913417088107731e-02 0.0000000000000000e+00  2.7230274158221501e-01 -9.6991929987966852e-02 0.0000000000000000e+00  2.6701616734395633e-01 -9.7251995126225649e-02 0.0000000000000000e+00  2.6185238929571619e-01 -9.7773023199828155e-02 0.0000000000000000e+00  2.5675954744820290e-01 -9.8624997068379405e-02 0.0000000000000000e+00  2.5163628955933370e-01 -9.9877799682744087e-02 0.0000000000000000e+00  2.4637093778535177e-01 -1.0159348220485676e-01 0.0000000000000000e+00  2.4082495182696911e-01 -1.0382735912261586e-01 0.0000000000000000e+00  2.3484539966104487e-01 -1.0663790873534365e-01 0.0000000000000000e+00  2.2822520847401978e-01 -1.1006006024807834e-01 0.0000000000000000e+00  2.2071897122398310e-01 -1.1409255043677002e-01 0.0000000000000000e+00  2.1207542846025479e-01 -1.1872776136311701e-01 0.0000000000000000e+00  2.0200393831480296e-01 -1.2381997292984392e-01 0.0000000000000000e+00  1.9032484539131070e-01 -1.2915874816510606e-01 0.0000000000000000e+00  1.7695877259885362e-01 -1.3444980274219501e-01 0.0000000000000000e+00  1.6201321272293376e-01 -1.3938530624344717e-01 0.0000000000000000e+00  1.4567715271382764e-01 -1.4375313835511797e-01 0.0000000000000000e+00  1.2817329744936759e-01 -1.4742646520024805e-01 0.0000000000000000e+00  1.0953264520529030e-01 -1.5041169392038217e-01 0.0000000000000000e+00  8.9728527138511649e-02 -1.5262485652369920e-01 0.0000000000000000e+00  8.1303676186612522e-02 -1.3802771756236418e-01 0.0000000000000000e+00  9.3797852611385055e-02 -1.2407051356916958e-01 0.0000000000000000e+00  1.0593156543707211e-01 -1.1159290681721747e-01 0.0000000000000000e+00  1.1772354619617521e-01 -1.0012707105756065e-01 0.0000000000000000e+00  1.2923903324407163e-01 -8.9335012502872221e-02 0.0000000000000000e+00  1.4060264761195299e-01 -7.8841955863038965e-02 0.0000000000000000e+00  1.5232147082281666e-01 -6.8036168549530124e-02 0.0000000000000000e+00  1.6552383642918125e-01 -5.6362243368372061e-02 0.0000000000000000e+00  2.0031250744826712e-01 -2.6949967979841821e-02 0.0000000000000000e+00  2.0498574707832701e-01 -2.1228884188881726e-02 0.0000000000000000e+00  2.0774047203609969e-01 -1.7124697371530714e-02 0.0000000000000000e+00  2.0951359373373213e-01 -1.3731974190691916e-02 0.0000000000000000e+00  2.1072959072991709e-01 -1.0716094479968599e-02 0.0000000000000000e+00  2.1152908508054202e-01 -7.8889961389617611e-03 0.0000000000000000e+00  2.1204104870504059e-01 -5.1990311046166372e-03 0.0000000000000000e+00  2.1233245797780223e-01 -2.5786634433719764e-03 0.0000000000000000e+00  2.1134574300785949e-01 0.0000000000000000e+00 0.0000000000000000e+00  2.1026716038292009e-01 0.0000000000000000e+00 0.0000000000000000e+00  2.0927665808093981e-01 0.0000000000000000e+00 0.0000000000000000e+00  2.0845317323135712e-01 0.0000000000000000e+00 0.0000000000000000e+00  2.0786609001989104e-01 0.0000000000000000e+00 0.0000000000000000e+00  2.0751388651801994e-01 0.0000000000000000e+00 0.0000000000000000e+00  2.0741882345119450e-01 0.0000000000000000e+00 0.0000000000000000e+00  2.0755843917615635e-01 0.0000000000000000e+00 0.0000000000000000e+00  2.0790000608070378e-01 0.0000000000000000e+00 0.0000000000000000e+00  2.0840903050834231e-01 0.0000000000000000e+00 0.0000000000000000e+00  2.0907815925294779e-01 0.0000000000000000e+00 0.0000000000000000e+00  2.0986522502759278e-01 0.0000000000000000e+00 0.0000000000000000e+00  2.1074738944394786e-01 0.0000000000000000e+00 0.0000000000000000e+00  2.1169784679272155e-01 0.0000000000000000e+00 0.0000000000000000e+00  2.1269549746223057e-01 0.0000000000000000e+00 0.0000000000000000e+00  2.1372142051187207e-01 0.0000000000000000e+00 0.0000000000000000e+00  2.1476535138067065e-01 0.0000000000000000e+00 0.0000000000000000e+00  2.1582098026274132e-01 0.0000000000000000e+00 0.0000000000000000e+00  2.1686978332139492e-01 0.0000000000000000e+00 0.0000000000000000e+00  2.1791015121777935e-01 0.0000000000000000e+00 0.0000000000000000e+00  2.1893289568043989e-01 0.0000000000000000e+00 0.0000000000000000e+00  2.1994075703133012e-01 0.0000000000000000e+00 0.0000000000000000e+00  2.2093149646537222e-01 0.0000000000000000e+00 0.0000000000000000e+00  2.2189827354323854e-01 0.0000000000000000e+00 0.0000000000000000e+00  2.2284801313383754e-01 0.0000000000000000e+00 0.0000000000000000e+00  2.2377649991758650e-01 0.0000000000000000e+00 0.0000000000000000e+00  2.2469084630026898e-01 0.0000000000000000e+00 0.0000000000000000e+00  2.2559071497752056e-01 0.0000000000000000e+00 0.0000000000000000e+00  2.2648879667549607e-01 0.0000000000000000e+00 0.0000000000000000e+00  2.2739016454339250e-01 0.0000000000000000e+00 0.0000000000000000e+00  2.2829628128033541e-01 0.0000000000000000e+00 0.0000000000000000e+00  2.2922520522357306e-01 0.0000000000000000e+00 0.0000000000000000e+00  2.3017453760675849e-01 0.0000000000000000e+00 0.0000000000000000e+00  2.3126556170007778e-01 1.5883673820810825e-03 0.0000000000000000e+00  2.3149789021040554e-01 3.1556675240009967e-03 0.0000000000000000e+00  2.3188693539244629e-01 4.6939679835658202e-03 0.0000000000000000e+00  2.3243079482986609e-01 6.2132766947121032e-03 0.0000000000000000e+00  2.3311804260651536e-01 7.6920947724126477e-03 0.0000000000000000e+00  2.3394799648796361e-01 9.1235006687723427e-03 0.0000000000000000e+00  2.3491084769199444e-01 1.0497757560505765e-02 0.0000000000000000e+00  2.3598982952406267e-01 1.1799996430369775e-02 0.0000000000000000e+00  2.3718478320140862e-01 1.3034148425201836e-02 0.0000000000000000e+00  2.3847968273505815e-01 1.4188943846513978e-02 0.0000000000000000e+00  2.3986176097360717e-01 1.5257754318540637e-02 0.0000000000000000e+00  2.4131254277397263e-01 1.6234743336502565e-02 0.0000000000000000e+00  2.4282650564722530e-01 1.7120513090146464e-02 0.0000000000000000e+00  2.4437489277683982e-01 1.7909333396327644e-02 0.0000000000000000e+00  2.4595287063880431e-01 1.8604358058064738e-02 0.0000000000000000e+00  2.4754317786583296e-01 1.9206309562488384e-02 0.0000000000000000e+00  2.4912360828838032e-01 1.9717844778262418e-02 0.0000000000000000e+00  2.5068187727249819e-01 2.0145286755321991e-02 0.0000000000000000e+00  2.5220405253550476e-01 2.0497093145454132e-02 0.0000000000000000e+00  2.5367697546156975e-01 2.0785429317590479e-02 0.0000000000000000e+00  2.5509452951386857e-01 2.1022853441007197e-02 0.0000000000000000e+00  2.5645373881598760e-01 2.1226974319429645e-02 0.0000000000000000e+00  2.5776043636457741e-01 2.1414423602207442e-02 0.0000000000000000e+00  2.5902687622874238e-01 2.1600028429607735e-02 0.0000000000000000e+00  2.1843760479707841e-01 4.5092900785890610e-04 0.0000000000000000e+00  2.1322961646285471e-01 1.3714652604896672e-04 0.0000000000000000e+00  2.6319630089474016e-01 -3.1453304542921057e-03 0.0000000000000000e+00  2.5720033409298393e-01 6.3186168564422600e-03 0.0000000000000000e+00  2.4129121445034024e-01 1.5334727019697425e-02 0.0000000000000000e+00  2.0876120604779275e-01 -5.8846138851513085e-04 0.0000000000000000e+00  2.5571372938842235e-01 1.0778344786576863e-02 0.0000000000000000e+00  2.7119460922040928e-01 -1.8328645549678401e-02 0.0000000000000000e+00  2.2244556890356482e-01 5.8623032405185217e-04 0.0000000000000000e+00  2.7807824175279716e-01 -3.7603897363764911e-02 0.0000000000000000e+00  1.9515915379371479e-01 -2.9983381081681668e-02 0.0000000000000000e+00  1.9595698798762154e-01 -3.0916560362036442e-02 0.0000000000000000e+00  1.9852738009166337e-01 -2.6346388710081593e-02 0.0000000000000000e+00  2.0155515690938725e-01 -2.7338158421735200e-02 0.0000000000000000e+00  2.0230439319596841e-01 -2.3188745667370583e-02 0.0000000000000000e+00  2.0604573729653941e-01 -2.4133644483985986e-02 0.0000000000000000e+00  2.0596095759983171e-01 -2.0396106195842416e-02 0.0000000000000000e+00  2.4772936799186773e-01 1.8164684137398645e-02 0.0000000000000000e+00  2.0982111477269913e-01 -2.1125039531844251e-02 0.0000000000000000e+00  2.0927023850274018e-01 -1.7780543229536681e-02 0.0000000000000000e+00  2.3567673010550796e-01 1.1329667205769578e-02 0.0000000000000000e+00  2.1323444823736570e-01 -1.8443847538153892e-02 0.0000000000000000e+00  2.1251129966651156e-01 -1.5379673851808853e-02 0.0000000000000000e+00  2.1636880342927542e-01 -1.5951009220178013e-02 0.0000000000000000e+00  2.1543908622524366e-01 -1.3095831598635909e-02 0.0000000000000000e+00  2.1925804885714512e-01 -1.3610490214871387e-02 0.0000000000000000e+00  2.1820936778362127e-01 -1.0975077350777828e-02 0.0000000000000000e+00  2.1779695160027801e-01 -1.9360109642652185e-02 0.0000000000000000e+00  2.4972510551991003e-01 -9.6103901908964437e-02 0.0000000000000000e+00  2.2196561235223317e-01 -1.1411767913702310e-02 0.0000000000000000e+00  2.2086093328703615e-01 -9.0041594829873440e-03 0.0000000000000000e+00  2.2451575445894020e-01 -9.3472393572763060e-03 0.0000000000000000e+00  2.2335626908985823e-01 -7.1397668393868010e-03 0.0000000000000000e+00  2.2692541589544674e-01 -7.4075299546885447e-03 0.0000000000000000e+00  2.2572628832186417e-01 -5.3835660547653860e-03 0.0000000000000000e+00  2.2245379454613365e-01 -5.2498288504172937e-03 0.0000000000000000e+00  2.2476162665260666e-01 -3.6591978513890564e-03 0.0000000000000000e+00  2.2172481222831783e-01 -3.6257519999119215e-03 0.0000000000000000e+00  2.2398079991360090e-01 -2.1845309143756885e-03 0.0000000000000000e+00  2.2697522746243470e-01 -2.1717736396661969e-03 0.0000000000000000e+00  2.2613880210622153e-01 -8.3816696973017777e-04 0.0000000000000000e+00  2.2910018335639182e-01 -7.8566213266510537e-04 0.0000000000000000e+00  2.2822722534327827e-01 4.1406583472253266e-04 0.0000000000000000e+00  2.2544876528518820e-01 2.9216903393089938e-04 0.0000000000000000e+00  2.2750154342558826e-01 1.4228208186248344e-03 0.0000000000000000e+00  2.3022946459355720e-01 1.5827375111561665e-03 0.0000000000000000e+00  2.2946374368492883e-01 2.4833950928125643e-03 0.0000000000000000e+00  2.2691526996628394e-01 2.2598442812329302e-03 0.0000000000000000e+00  2.2882605389929514e-01 3.2278015650026451e-03 0.0000000000000000e+00  2.2641623883427023e-01 2.9492877145550281e-03 0.0000000000000000e+00  2.2828867784534648e-01 3.8372555509778379e-03 0.0000000000000000e+00  2.3067530392962948e-01 4.1328726804037109e-03 0.0000000000000000e+00  2.3010000619303736e-01 4.6709833471721912e-03 0.0000000000000000e+00  2.3246532540817699e-01 4.9801662129516358e-03 0.0000000000000000e+00  2.3186334663891955e-01 5.4565890551493091e-03 0.0000000000000000e+00  2.2961582243344933e-01 5.1006704968650967e-03 0.0000000000000000e+00  2.3134795229335151e-01 5.8369351274580291e-03 0.0000000000000000e+00  2.3356455721231895e-01 6.2020936378309041e-03 0.0000000000000000e+00  2.3302820017512493e-01 6.5431105683880645e-03 0.0000000000000000e+00  2.3092017790962738e-01 6.1333330426329045e-03 0.0000000000000000e+00  2.3256046809501094e-01 6.8083065741059226e-03 0.0000000000000000e+00  2.3462697001273869e-01 7.2329693986630424e-03 0.0000000000000000e+00  2.3057709198641738e-01 6.3604420201118853e-03 0.0000000000000000e+00  2.3219923282836077e-01 7.0223911007181424e-03 0.0000000000000000e+00  2.2839897874472509e-01 -9.7841582724723531e-03 0.0000000000000000e+00  2.5629024549138746e-01 1.4236837272946378e-02 0.0000000000000000e+00  2.3031027570077814e-01 6.5311273350942946e-03 0.0000000000000000e+00  2.3187567711815404e-01 7.1775291065187844e-03 0.0000000000000000e+00  2.1207381017236568e-01 -1.2716599593832201e-02 0.0000000000000000e+00  2.3009746822576302e-01 6.6498963443845449e-03 0.0000000000000000e+00  2.0276981015773060e-01 -3.3437895073534410e-02 0.0000000000000000e+00  2.2869288530114237e-01 5.8777238017713885e-03 0.0000000000000000e+00  2.8138987842145435e-01 -5.5212078899863438e-02 0.0000000000000000e+00  2.3260366038086822e-01 7.6748163399817564e-03 0.0000000000000000e+00  2.5971489389248936e-01 2.3250675936058976e-03 0.0000000000000000e+00  2.2515224303827197e-01 7.3442457837172249e-04 0.0000000000000000e+00  2.3277947210297309e-01 -1.0228003536940392e-01 0.0000000000000000e+00  2.3164071927361854e-01 7.3006773315187684e-03 0.0000000000000000e+00  2.3340736360588524e-01 7.8384042776460713e-03 0.0000000000000000e+00  2.2994754715828677e-01 6.7292058083660124e-03 0.0000000000000000e+00  2.0742936645406876e-01 -1.4017226159543379e-03 0.0000000000000000e+00  2.3145525244729323e-01 7.3888629963442210e-03 0.0000000000000000e+00  2.2985065143459027e-01 6.7748894507340500e-03 0.0000000000000000e+00  2.0352095138151138e-01 -1.9754456436424320e-02 0.0000000000000000e+00  2.5247976219033630e-01 1.9423892234083709e-02 0.0000000000000000e+00  2.2837033811717367e-01 6.1287260674149427e-03 0.0000000000000000e+00  2.2836628140988807e-01 6.1327642110531053e-03 0.0000000000000000e+00  2.3132111937064204e-01 7.4511810943787300e-03 0.0000000000000000e+00  2.0807244264235808e-01 -2.0201601089402214e-03 0.0000000000000000e+00  2.3068174739969305e-01 -7.7502030134403779e-03 0.0000000000000000e+00  2.3242441055680896e-01 -1.0300296848955795e-02 0.0000000000000000e+00  2.3455235238984845e-01 -8.1565893556492363e-03 0.0000000000000000e+00  2.3651062657875760e-01 -1.0858694553598627e-02 0.0000000000000000e+00  2.3847809255862981e-01 -8.6052405879857852e-03 0.0000000000000000e+00  2.4060996696194550e-01 -1.1435492589840193e-02 0.0000000000000000e+00  2.3871606879063403e-01 -1.3987565233480631e-02 0.0000000000000000e+00  2.4296381796059988e-01 -1.4683244969811439e-02 0.0000000000000000e+00  2.4112483423086031e-01 -1.7637539449402478e-02 0.0000000000000000e+00  2.2692366428791044e-01 5.5035209098016095e-03 0.0000000000000000e+00  2.4241987346854299e-01 -9.0819167859845559e-03 0.0000000000000000e+00  2.6461953979631753e-01 -9.2824809038054276e-02 0.0000000000000000e+00  2.0878984484113711e-01 -1.1240271789636722e-01 0.0000000000000000e+00  2.2701540053237870e-01 5.4667135701189987e-03 0.0000000000000000e+00  2.4549990347234241e-01 -1.8380318069320504e-02 0.0000000000000000e+00  2.4378555786358677e-01 -2.1741988835502477e-02 0.0000000000000000e+00  2.2562155878570739e-01 4.8586547720168658e-03 0.0000000000000000e+00  2.0915492027799126e-01 -1.2900320046710675e-02 0.0000000000000000e+00  2.4822546312722005e-01 -2.2514849913618983e-02 0.0000000000000000e+00  2.4662246010002811e-01 -2.6217115673059323e-02 0.0000000000000000e+00  2.2580945065304459e-01 4.7806836107104050e-03 0.0000000000000000e+00  2.2715185334848523e-01 5.3987982814373680e-03 0.0000000000000000e+00  2.4034583586981279e-01 -6.5166816488551162e-03 0.0000000000000000e+00  2.4413404229654245e-01 -6.9091906941546651e-03 0.0000000000000000e+00  2.4211312038260638e-01 -4.5864794015060446e-03 0.0000000000000000e+00  2.4574042791420581e-01 -4.9096177354475004e-03 0.0000000000000000e+00  2.4377697865324416e-01 -2.8145727639682029e-03 0.0000000000000000e+00  2.4789815267487139e-01 -7.3209459446975647e-03 0.0000000000000000e+00  1.8784002614427037e-01 -5.4371399920254845e-02 0.0000000000000000e+00  2.2778966295775793e-01 1.0582132932120969e-03 0.0000000000000000e+00  2.2447254465946515e-01 4.1971000843259278e-03 0.0000000000000000e+00  2.2422960585203236e-01 4.2771175454226554e-03 0.0000000000000000e+00  2.5746869486468038e-01 1.7341964364037430e-02 0.0000000000000000e+00  2.2604043939329496e-01 4.6697595153967703e-03 0.0000000000000000e+00  2.2733364375184861e-01 5.3046728119098725e-03 0.0000000000000000e+00  2.5107432111108907e-01 -2.7070887819379899e-02 0.0000000000000000e+00  2.4949884289157251e-01 -3.1145773418178688e-02 0.0000000000000000e+00  2.4493773050097312e-01 -3.0250454121701256e-02 0.0000000000000000e+00  2.4785046592725862e-01 -3.5595117312259311e-02 0.0000000000000000e+00  2.4316757710024783e-01 -3.4630238461758889e-02 0.0000000000000000e+00  2.4616423610063656e-01 -4.0473257433207926e-02 0.0000000000000000e+00  2.4135610857418943e-01 -3.9462753590411313e-02 0.0000000000000000e+00  2.4439696171324551e-01 -4.5814565901407651e-02 0.0000000000000000e+00  2.4914104009054996e-01 -4.6631851345497202e-02 0.0000000000000000e+00  2.3945363688657403e-01 -4.4840043504622937e-02 0.0000000000000000e+00  2.4249187329574218e-01 -5.1689418678607858e-02 0.0000000000000000e+00  2.3738580311665322e-01 -5.0821876803403207e-02 0.0000000000000000e+00  2.4724525350236098e-01 -3.0835956770588102e-03 0.0000000000000000e+00  2.4533293410261761e-01 -1.1919199235544118e-03 0.0000000000000000e+00  2.4863454960502901e-01 -1.4222486097271883e-03 0.0000000000000000e+00  2.4677788040806281e-01 2.8384139535219739e-04 0.0000000000000000e+00  2.5260793872400716e-01 -2.3375408841768492e-02 0.0000000000000000e+00  2.5396416086229112e-01 -3.1937707471993516e-02 0.0000000000000000e+00  2.4038938390292022e-01 -5.8180548723591581e-02 0.0000000000000000e+00  2.350612727461