<?xml version="1.0"?>
<VTKFile type="UnstructuredGrid"  version="0.1"  >
<UnstructuredGrid>
<Piece  NumberOfPoints="1273" NumberOfCells="2403">
<Points>
<DataArray  type="Float64"  NumberOfComponents="3"  format="ascii">40 0 0  20 0 0  20 11.26396616664521 0  23.32698642020435 8.211990968112239 0  23.32698642020435 12.5 0  40 12.5 0  39.5 0 0  39 0 0  38.5 0 0  38 0 0  37.5 0 0  37 0 0  36.5 0 0  36 0 0  35.5 0 0  35 0 0  34.5 0 0  34 0 0  33.5 0 0  33 0 0  32.5 0 0  32 0 0  31.5 0 0  31 0 0  30.5 0 0  30 0 0  29.5 0 0  29 0 0  28.5 0 0  28 0 0  27.5 0 0  27 0 0  26.5 0 0  26 0 0  25.5 0 0  25 0 0  24.5 0 0  24 0 0  23.5 0 0  23 0 0  22.5 0 0  22 0 0  21.5 0 0  21 0 0  20.5 0 0  20 0.4897376594193571 0  20 0.9794753188387142 0  20 1.469212978258071 0  20 1.958950637677428 0  20 2.448688297096786 0  20 2.938425956516142 0  20 3.4281636159355 0  20 3.917901275354857 0  20 4.407638934774214 0  20 4.897376594193571 0  20 5.387114253612928 0  20 5.876851913032285 0  20 6.366589572451642 0  20 6.856327231870999 0  20 7.346064891290356 0  20 7.835802550709714 0  20 8.32554021012907 0  20 8.815277869548428 0  20 9.305015528967784 0  20 9.794753188387142 0  20 10.2844908478065 0  20 10.77422850722586 0  20.33269864202044 10.95876864679192 0  20.66539728404087 10.65357112693862 0  20.99809592606131 10.34837360708532 0  21.33079456808174 10.04317608723202 0  21.66349321010217 9.737978567378725 0  21.99619185212261 9.432781047525429 0  22.32889049414305 9.127583527672131 0  22.66158913616348 8.822386007818833 0  22.99428777818392 8.517188487965537 0  23.32698642020435 8.688436416099769 0  23.32698642020435 9.164881864087297 0  23.32698642020435 9.641327312074827 0  23.32698642020435 10.11777276006235 0  23.32698642020435 10.59421820804988 0  23.32698642020435 11.07066365603741 0  23.32698642020435 11.54710910402494 0  23.32698642020435 12.02355455201247 0  23.81736917255128 12.5 0  24.30775192489821 12.5 0  24.79813467724514 12.5 0  25.28851742959208 12.5 0  25.77890018193901 12.5 0  26.26928293428594 12.5 0  26.75966568663287 12.5 0  27.2500484389798 12.5 0  27.74043119132673 12.5 0  28.23081394367366 12.5 0  28.72119669602059 12.5 0  29.21157944836752 12.5 0  29.70196220071445 12.5 0  30.19234495306138 12.5 0  30.68272770540831 12.5 0  31.17311045775525 12.5 0  31.66349321010217 12.5 0  32.15387596244911 12.5 0  32.64425871479604 12.5 0  33.13464146714297 12.5 0  33.6250242194899 12.5 0  34.11540697183683 12.5 0  34.60578972418377 12.5 0  35.09617247653069 12.5 0  35.58655522887762 12.5 0  36.07693798122455 12.5 0  36.56732073357148 12.5 0  37.05770348591842 12.5 0  37.54808623826535 12.5 0  38.03846899061227 12.5 0  38.5288517429592 12.5 0  39.01923449530614 12.5 0  39.50961724765307 12.5 0  40 12 0  40 11.5 0  40 11 0  40 10.5 0  40 10 0  40 9.5 0  40 9 0  40 8.5 0  40 8 0  40 7.5 0  40 7 0  40 6.5 0  40 6 0  40 5.5 0  40 5 0  40 4.5 0  40 4 0  40 3.5 0  40 3 0  40 2.5 0  40 2 0  40 1.5 0  40 1 0  40 0.5 0  29.17018984561423 0.4631572277333129 0  33.37983284331644 12.07531607888982 0  30.93597181603555 12.07375933329841 0  32.25 0.4330127018922196 0  39.58646976506729 6.25335112682535 0  28.47636491957009 12.08262081503466 0  34.74759546498188 0.4210371394636789 0  26.74146683542329 0.4403180880858901 0  35.36381569868009 12.05287192816701 0  24.76910776365971 0.4996336158264434 0  23.72723141603652 8.454733356972271 0  23.70929630570945 7.992931524410301 0  24.12108397884628 8.222203639917987 0  24.12017116775007 7.763818300467557 0  24.52061709847177 7.993149761828295 0  24.52099042538669 7.532897709431385 0  24.92074976781758 7.763264227256313 0  24.92157208037494 7.299967403098798 0  25.32399281311524 7.536921799589624 0  39.60949362545566 4.229174881391439 0  25.32514774693192 7.065896393057234 0  25.73050814341902 7.299042860779268 0  39.58480886823671 8.249899004182014 0  25.73111362860877 6.828872719479889 0  26.14227298019837 7.068492664471644 0  25.32293451100592 6.594975423128289 0  26.14033165583738 6.591702191801675 0  26.55389843263386 6.833093302902601 0  26.55147406706401 6.353553166785171 0  26.96450410374047 6.59183545259845 0  20.39037856443889 3.652021663600427 0  26.96410964475989 6.113408925605919 0  27.37872747339861 6.352461691622398 0  27.37853269443772 5.872877860675687 0  27.79468990109372 6.112780911153198 0  27.7942071555311 6.593338850352321 0  28.21137595926681 6.353522392616267 0  28.21087568254904 6.836892243471175 0  28.6324050157796 6.600676965650639 0  28.62977504117282 6.112910851140042 0  29.05195669383709 6.360406443307861 0  29.04874560452304 5.870861147357041 0  29.46869503289934 6.11362562391658 0  29.46843774733227 5.627622834317176 0  29.8885602666484 5.870313771365278 0  29.88811980983533 6.356373934528937 0  30.30962701834859 6.113742056978157 0  30.30883677366145 6.600652710659537 0  30.73113294741879 6.357613497947653 0  30.73000347333527 6.844916746981071 0  31.15287528657408 6.60336292754206 0  31.15373779869676 6.114008295231822 0  31.57656404873474 6.358349793942108 0  31.57610254069656 5.871227325195211 0  31.99961925375382 6.116557925443374 0  32.00022243131252 6.610682262542926 0  32.42487255241373 6.359803027523291 0  32.4317538852933 5.877130287349014 0  32.85234875171317 6.118301233027455 0  32.85038006471711 6.613137806324279 0  33.2753225846832 6.361491275840232 0  33.27617450067378 5.870023680147942 0  33.70238906575572 6.117056546076403 0  33.70148379430929 6.612037774184209 0  26.96261352252226 5.63343036169275 0  36.73302644217231 0.4787826603626106 0  33.70473752264295 5.627435740136968 0  34.13009830619702 5.872211941739651 0  34.13006879436989 5.378545522257543 0  26.13828508380845 7.568812217077157 0  23.70162170123793 7.53174533216788 0  34.55738692418247 5.625538919272252 0  34.55647263627615 5.131849766933236 0  23.19623717465752 0.4730747626283698 0  39.56698729810778 9.75 0  30.74979836785453 0.4186459344991382 0  33.70454265437115 5.14005516654116 0  36.80881987054145 12.06622283588343 0  20.35206494821968 5.124951071859079 0  26.98141954436383 11.98289192106787 0  34.9854941201872 5.379208955338236 0  34.98502928374294 5.874550891520523 0  34.98485177662755 4.884397059341445 0  24.92053397267286 8.226230409634411 0  39.58384766830103 2.744185672328351 0  35.41444494204308 5.132549383473344 0  35.41511836154094 4.637305614878138 0  34.98516428521529 4.389013869135955 0  25.52569969795871 12.08020732795689 0  35.41582888166554 4.141666461570496 0  30.30769243834323 7.087828496377012 0  30.7290779381103 7.332410020890066 0  30.30667005174264 7.575760877948779 0  30.72851485500084 7.820175425150045 0  30.30564152331277 8.063748379961043 0  30.72767044958595 8.308119940193368 0  30.304483225007 8.551345148721214 0  29.04761670458125 5.384703129857956 0  29.46858009598392 5.141369824145367 0  29.04694157911634 4.898129802549495 0  29.46883473280293 4.654268634060155 0  29.04590910766887 4.410359591486895 0  29.46908069817096 4.166041330124428 0  29.04515863406619 3.921580865443242 0  35.84404277270846 4.885669821738329 0  20.41391572097028 2.206613883354438 0  34.98618307289716 3.893191288705586 0  20.37832995405167 6.572725992221963 0  30.7263751699342 8.797323890800868 0  30.30242246486407 9.04037939121654 0  29.88135462585419 8.794717322531554 0  29.46904232143534 3.677251149026937 0  31.15036732898806 8.55309061020726 0  31.14868853295325 9.043618731122168 0  31.57367586630109 8.798346751412383 0  29.89343290595392 3.921814976352661 0  35.41673648361943 3.645569713516988 0  29.04435940218505 3.433091174827553 0  28.62065843816696 3.677448980747714 0  31.57232159008364 9.288637341391816 0  31.99737688841318 9.043809288701297 0  28.62000542932173 3.187837015632934 0  28.19585194016185 3.432867239837623 0  23.71688540123378 10.34001588572939 0  29.89475216587847 3.433856014613703 0  30.31935625678231 3.677415106056745 0  34.9866069166748 3.396866325360338 0  29.87979525762597 9.282087181832201 0  29.45895493639322 9.037482455980982 0  22.89458557373855 8.075711196358048 0  35.41740922303907 3.148992610506661 0  35.84745482610573 3.398025016012924 0  30.32075208557507 3.187591465573238 0  30.74628360533544 3.432324082155256 0  38.28091817452503 12.06002388104334 0  31.99632352311266 9.533941281203496 0  32.42135903353921 9.28944661738274 0  38.2499887880623 0.4139084626045806 0  28.19551506520939 2.94272221189088 0  27.77077883291598 3.188156788207579 0  29.45815391958078 9.524004906278048 0  29.03783686143679 9.280068728710027 0  30.74814111336548 2.942370077278074 0  31.17257050028362 3.187901994270757 0  35.84818258732241 2.900917587809263 0  36.27858835250291 3.150273496625577 0  34.98737383281919 2.900156491766981 0  34.55669388062226 3.148332882083494 0  29.87887728062114 9.76899304394486 0  21.72173783151547 0.4488808573541485 0  32.42018852131734 9.780074356458664 0  32.84548274968637 9.53548824149223 0  32.84505571494923 9.047318212846951 0  33.27061508007353 9.29126180334551 0  34.55714652732843 2.651516402354432 0  34.12644939684893 2.899561689122475 0  34.12693617009761 2.402749336246092 0  33.69637915422862 2.650715861437585 0  33.26979636286008 9.781687707178461 0  33.69532949186743 9.536995700013698 0  33.69630278900289 9.046119907706501 0  34.12113077878726 9.292310592953356 0  34.12060286906338 8.803755498923001 0  34.54720707671986 9.047998978422847 0  34.54537606570519 8.56173182394204 0  34.97380544412044 8.803448372286281 0  34.97364749672775 9.295706662858745 0  35.40083384503968 9.050424876401863 0  35.40164064686487 8.556858789901799 0  35.82878821544293 8.80481519684043 0  35.82767636412482 8.314065161354932 0  36.25663034149311 8.559165247560633 0  36.25410937928272 8.072355675077052 0  36.25553288276102 9.052785109485939 0  36.68432840219837 8.806737910130613 0  36.68327874858776 9.30128402251756 0  37.11222402163513 9.055085013025954 0  37.11075610810042 9.549805246912719 0  36.68200824085252 9.795722735158453 0  30.32797391105704 2.701235729932296 0  31.17336548701972 2.691994548085266 0  27.77095297605615 2.697768792562
[...]
<PointData  Vectors="u"> 
<DataArray  type="Float64"  Name="u"  NumberOfComponents="3" format="ascii">2.0569295579544794e-01 1.8897073310537412e-02 0.0000000000000000e+00  2.2771438751357945e-01 -7.9391728783618207e-02 0.0000000000000000e+00  2.5952834547072506e-02 -1.2558944824687052e-01 0.0000000000000000e+00  1.4051614137727475e-01 -2.9819998403046555e-02 0.0000000000000000e+00  1.6383373726592693e-01 0.0000000000000000e+00 0.0000000000000000e+00  1.8180390407779165e-01 0.0000000000000000e+00 0.0000000000000000e+00  2.0518827353412661e-01 1.7872914577031416e-02 0.0000000000000000e+00  2.0467672958459573e-01 1.6862780433046447e-02 0.0000000000000000e+00  2.0416443724189340e-01 1.5886637403465388e-02 0.0000000000000000e+00  2.0366484431836601e-01 1.4959687441537004e-02 0.0000000000000000e+00  2.0319559098455298e-01 1.4083022295648055e-02 0.0000000000000000e+00  2.0276683466410589e-01 1.3256355443844188e-02 0.0000000000000000e+00  2.0239531648380774e-01 1.2474526322289113e-02 0.0000000000000000e+00  2.0209014917633877e-01 1.1730085556551605e-02 0.0000000000000000e+00  2.0185742719325717e-01 1.1012326314651903e-02 0.0000000000000000e+00  2.0171379521891922e-01 1.0311424705443065e-02 0.0000000000000000e+00  2.0165797921435635e-01 9.6112622978658281e-03 0.0000000000000000e+00  2.0170704864859101e-01 8.9026976501813335e-03 0.0000000000000000e+00  2.0185913528020477e-01 8.1613665257075866e-03 0.0000000000000000e+00  2.0212573039937079e-01 7.3859374170001423e-03 0.0000000000000000e+00  2.0251378293125835e-01 6.5482656949391680e-03 0.0000000000000000e+00  2.0301527484601631e-01 5.6278565816831076e-03 0.0000000000000000e+00  2.0365225367580603e-01 4.6209679812178606e-03 0.0000000000000000e+00  2.0441236455445036e-01 3.4809423732261096e-03 0.0000000000000000e+00  2.0530394438574306e-01 2.2096537910575175e-03 0.0000000000000000e+00  2.0632531870662110e-01 7.7284587301629476e-04 0.0000000000000000e+00  2.0746815100431917e-01 -8.6195331210977893e-04 0.0000000000000000e+00  2.0872626517797063e-01 -2.7059357528638581e-03 0.0000000000000000e+00  2.1014148482135972e-01 -4.7735298076959261e-03 0.0000000000000000e+00  2.1161112835920876e-01 -7.1298525073583453e-03 0.0000000000000000e+00  2.1317691104001912e-01 -9.7664126194686538e-03 0.0000000000000000e+00  2.1481078574367002e-01 -1.2724212791199412e-02 0.0000000000000000e+00  2.1648348726091221e-01 -1.5996996036060338e-02 0.0000000000000000e+00  2.1816934744414898e-01 -1.9622803779377702e-02 0.0000000000000000e+00  2.1982483991737986e-01 -2.3581208029970230e-02 0.0000000000000000e+00  2.2140948048914691e-01 -2.7887098552083170e-02 0.0000000000000000e+00  2.2287811807367597e-01 -3.2507348056306243e-02 0.0000000000000000e+00  2.2420592756076879e-01 -3.7410396927068150e-02 0.0000000000000000e+00  2.2535005035183259e-01 -4.2558311351349541e-02 0.0000000000000000e+00  2.2626097100128950e-01 -4.7864702863209513e-02 0.0000000000000000e+00  2.2695698553622426e-01 -5.3317211776308764e-02 0.0000000000000000e+00  2.2741486466186561e-01 -5.8735208675448507e-02 0.0000000000000000e+00  2.2765578308998663e-01 -6.4099170571160324e-02 0.0000000000000000e+00  2.2773814265639603e-01 -6.9335647981696114e-02 0.0000000000000000e+00  2.2773298843638784e-01 -7.4419185349552469e-02 0.0000000000000000e+00  2.2285542552494417e-01 -7.9373962714975793e-02 0.0000000000000000e+00  2.1810306736671989e-01 -7.9362584144892959e-02 0.0000000000000000e+00  2.1349332992764766e-01 -7.9436913701484785e-02 0.0000000000000000e+00  2.0902078245183070e-01 -7.9665870494108684e-02 0.0000000000000000e+00  2.0464995870621785e-01 -8.0117066728339667e-02 0.0000000000000000e+00  2.0032617299610281e-01 -8.0850473987035723e-02 0.0000000000000000e+00  1.9595224185256538e-01 -8.1914813181379942e-02 0.0000000000000000e+00  1.9144784255583200e-01 -8.3365081293948207e-02 0.0000000000000000e+00  1.8670546795522425e-01 -8.5261602008076032e-02 0.0000000000000000e+00  1.8156415611056384e-01 -8.7639830978334443e-02 0.0000000000000000e+00  1.7584634252845668e-01 -9.0526676823460092e-02 0.0000000000000000e+00  1.6935212919498338e-01 -9.3919667838521473e-02 0.0000000000000000e+00  1.6185501482193232e-01 -9.7774925610808194e-02 0.0000000000000000e+00  1.5316027836474475e-01 -1.0195949526554066e-01 0.0000000000000000e+00  1.4318737297415837e-01 -1.0624567468847351e-01 0.0000000000000000e+00  1.3160607924276749e-01 -1.1055573109906762e-01 0.0000000000000000e+00  1.1882181518623922e-01 -1.1439264570954939e-01 0.0000000000000000e+00  1.0506264274154958e-01 -1.1764569652222910e-01 0.0000000000000000e+00  9.0535206202453242e-02 -1.2026304815470823e-01 0.0000000000000000e+00  7.5503173652841968e-02 -1.2223909297669250e-01 0.0000000000000000e+00  5.9732635670206459e-02 -1.2388403500815895e-01 0.0000000000000000e+00  4.3246078823706686e-02 -1.2506296344152523e-01 0.0000000000000000e+00  3.6910470083528601e-02 -1.1402769028447705e-01 0.0000000000000000e+00  4.7711702438056579e-02 -1.0349455823430674e-01 0.0000000000000000e+00  5.8307515263459932e-02 -9.3872515600498294e-02 0.0000000000000000e+00  6.8501851732613361e-02 -8.5065263036720851e-02 0.0000000000000000e+00  7.8414431209277463e-02 -7.6943928904051911e-02 0.0000000000000000e+00  8.8117081454634746e-02 -6.9255227282310317e-02 0.0000000000000000e+00  9.7805458291922331e-02 -6.1647181392330754e-02 0.0000000000000000e+00  1.0779703543223185e-01 -5.3948200786410071e-02 0.0000000000000000e+00  1.1928046548839435e-01 -4.5155268889194113e-02 0.0000000000000000e+00  1.5219098948538132e-01 -2.1311491933638096e-02 0.0000000000000000e+00  1.5664316736419917e-01 -1.6659607426251808e-02 0.0000000000000000e+00  1.5922974421843011e-01 -1.3376851413265348e-02 0.0000000000000000e+00  1.6094297859103182e-01 -1.0696575599793853e-02 0.0000000000000000e+00  1.6213141003782916e-01 -8.3403588945789101e-03 0.0000000000000000e+00  1.6291389154156358e-01 -6.1246286301576925e-03 0.0000000000000000e+00  1.6344338814360335e-01 -4.0378915774471804e-03 0.0000000000000000e+00  1.6372488875217650e-01 -2.0109369081164848e-03 0.0000000000000000e+00  1.6296579562569785e-01 0.0000000000000000e+00 0.0000000000000000e+00  1.6210249328471504e-01 0.0000000000000000e+00 0.0000000000000000e+00  1.6130299382470728e-01 0.0000000000000000e+00 0.0000000000000000e+00  1.6063737497634545e-01 0.0000000000000000e+00 0.0000000000000000e+00  1.6016562088827951e-01 0.0000000000000000e+00 0.0000000000000000e+00  1.5990685448974354e-01 0.0000000000000000e+00 0.0000000000000000e+00  1.5986218352690032e-01 0.0000000000000000e+00 0.0000000000000000e+00  1.6002149878831387e-01 0.0000000000000000e+00 0.0000000000000000e+00  1.6036699658968087e-01 0.0000000000000000e+00 0.0000000000000000e+00  1.6086299546297345e-01 0.0000000000000000e+00 0.0000000000000000e+00  1.6148898167213641e-01 0.0000000000000000e+00 0.0000000000000000e+00  1.6221823090108695e-01 0.0000000000000000e+00 0.0000000000000000e+00  1.6302978373512583e-01 0.0000000000000000e+00 0.0000000000000000e+00  1.6389263538890753e-01 0.0000000000000000e+00 0.0000000000000000e+00  1.6481328784611138e-01 0.0000000000000000e+00 0.0000000000000000e+00  1.6574812744713097e-01 0.0000000000000000e+00 0.0000000000000000e+00  1.6670243136161170e-01 0.0000000000000000e+00 0.0000000000000000e+00  1.6766586911383025e-01 0.0000000000000000e+00 0.0000000000000000e+00  1.6862540222832517e-01 0.0000000000000000e+00 0.0000000000000000e+00  1.6957716598956274e-01 0.0000000000000000e+00 0.0000000000000000e+00  1.7051764742072345e-01 0.0000000000000000e+00 0.0000000000000000e+00  1.7144474674725158e-01 0.0000000000000000e+00 0.0000000000000000e+00  1.7235466772385102e-01 0.0000000000000000e+00 0.0000000000000000e+00  1.7324438409288007e-01 0.0000000000000000e+00 0.0000000000000000e+00  1.7411957553937665e-01 0.0000000000000000e+00 0.0000000000000000e+00  1.7497874381177847e-01 0.0000000000000000e+00 0.0000000000000000e+00  1.7582358502390782e-01 0.0000000000000000e+00 0.0000000000000000e+00  1.7665844028113556e-01 0.0000000000000000e+00 0.0000000000000000e+00  1.7749351396996116e-01 0.0000000000000000e+00 0.0000000000000000e+00  1.7832570438107051e-01 0.0000000000000000e+00 0.0000000000000000e+00  1.7916552783632983e-01 0.0000000000000000e+00 0.0000000000000000e+00  1.8002182007753187e-01 0.0000000000000000e+00 0.0000000000000000e+00  1.8089789022449165e-01 0.0000000000000000e+00 0.0000000000000000e+00  1.8188243524335834e-01 1.3437749018978447e-03 0.0000000000000000e+00  1.8207187283268544e-01 2.6760481845375722e-03 0.0000000000000000e+00  1.8239480852518228e-01 3.9911463738063913e-03 0.0000000000000000e+00  1.8283953601932512e-01 5.2805732711258910e-03 0.0000000000000000e+00  1.8340771808769124e-01 6.5416097050434848e-03 0.0000000000000000e+00  1.8409100886212901e-01 7.7598963667413357e-03 0.0000000000000000e+00  1.8487914218185178e-01 8.9304200471394726e-03 0.0000000000000000e+00  1.8577271521940941e-01 1.0050279615614008e-02 0.0000000000000000e+00  1.8675617966095778e-01 1.1105035561438591e-02 0.0000000000000000e+00  1.8781851541915034e-01 1.2094886373299311e-02 0.0000000000000000e+00  1.8895280457457519e-01 1.3012807717590689e-02 0.0000000000000000e+00  1.9014722068112583e-01 1.3857451952979922e-02 0.0000000000000000e+00  1.9139215743417123e-01 1.4625541978379756e-02 0.0000000000000000e+00  1.9266952191835357e-01 1.5312746292362981e-02 0.0000000000000000e+00  1.9396564370294087e-01 1.5921187849554895e-02 0.0000000000000000e+00  1.9526671963865713e-01 1.6452074216616066e-02 0.0000000000000000e+00  1.9656492694432937e-01 1.6908691442557928e-02 0.0000000000000000e+00  1.9784430612049733e-01 1.7295723340079894e-02 0.0000000000000000e+00  1.9909320509332612e-01 1.7619601815974221e-02 0.0000000000000000e+00  2.0029794009215618e-01 1.7892346350794983e-02 0.0000000000000000e+00  2.0145958526624805e-01 1.8122177177126653e-02 0.0000000000000000e+00  2.0257079282891585e-01 1.8324965554893262e-02 0.0000000000000000e+00  2.0363732345513738e-01 1.8514333198289289e-02 0.0000000000000000e+00  2.0467276235107326e-01 1.8701894314550847e-02 0.0000000000000000e+00  2.0644278969465607e-01 -1.6026219449980020e-03 0.0000000000000000e+00  1.7010781367274483e-01 4.3678420324264397e-04 0.0000000000000000e+00  1.6534399322896892e-01 1.5619376364652972e-04 0.0000000000000000e+00  2.0184286201359630e-01 6.2557598187923842e-03 0.0000000000000000e+00  1.9015987049308478e-01 1.3282876440475091e-02 0.0000000000000000e+00  1.6118386180893132e-01 -4.3686244487432731e-04 0.0000000000000000e+00  2.0100113292632926e-01 9.9339984468859149e-03 0.0000000000000000e+00  2.1276211033973952e-01 -1.3826494753681987e-02 0.0000000000000000e+00  1.7378239279652036e-01 6.1143193379364024e-04 0.0000000000000000e+00  2.1764780672554129e-01 -2.9427473973006692e-02 0.0000000000000000e+00  1.4749431360719709e-01 -2.4330577084128877e-02 0.0000000000000000e+00  1.4743856962422011e-01 -2.4919493382962243e-02 0.0000000000000000e+00  1.5031029868199630e-01 -2.1431267988230349e-02 0.0000000000000000e+00  1.5257767974796435e-01 -2.1844755081983649e-02 0.0000000000000000e+00  1.5365167415742778e-01 -1.8821320865227812e-02 0.0000000000000000e+00  1.5660971276632366e-01 -1.9276914522209816e-02 0.0000000000000000e+00  1.5688824167864318e-01 -1.6493120109828806e-02 0.0000000000000000e+00  1.6004153749450475e-01 -1.6947339609628752e-02 0.0000000000000000e+00  1.5985247938148386e-01 -1.4351598988697150e-02 0.0000000000000000e+00  1.9550242272155324e-01 1.5748286481628987e-02 0.0000000000000000e+00  1.6308988469224941e-01 -1.4772117290788866e-02 0.0000000000000000e+00  1.6267451269262803e-01 -1.2357963744127390e-02 0.0000000000000000e+00  1.8556642082488517e-01 9.8220046461504566e-03 0.0000000000000000e+00  1.6587539848429225e-01 -1.2735221292186275e-02 0.0000000000000000e+00  1.6526220216829440e-01 -1.0472949799065462e-02 0.0000000000000000e+00  1.6691023766931545e-01 -1.5450123419521901e-02 0.0000000000000000e+00  1.6844070419492232e-01 -1.0812736522537919e-02 0.0000000000000000e+00  1.6770664745690714e-01 -8.7131266087797348e-03 0.0000000000000000e+00  1.7083447476495303e-01 -8.9984743213466657e-03 0.0000000000000000e+00  1.7004176655303946e-01 -7.0663855713435390e-03 0.0000000000000000e+00  1.9434588916128423e-01 -7.8641830004378008e-02 0.0000000000000000e+00  1.7309152969230629e-01 -7.2868954739770554e-03 0.0000000000000000e+00  1.7224169554021854e-01 -5.5075209850355229e-03 0.0000000000000000e+00  1.7522333026087528e-01 -5.6725295273531073e-03 0.0000000000000000e+00  1.7433302725197566e-01 -4.0382548042709396e-03 0.0000000000000000e+00  1.7161109024263327e-01 -3.9889827999957652e-03 0.0000000000000000e+00  1.7364398440208229e-01 -2.6482633000993665e-03 0.0000000000000000e+00  1.7115485685985954e-01 -2.6877336523522593e-03 0.0000000000000000e+00  1.7310212577664533e-01 -1.4561866561076564e-03 0.0000000000000000e+00  1.7559450948998589e-01 -1.3932236636218492e-03 0.0000000000000000e+00  1.7499402834778763e-01 -3.1303323222766342e-04 0.0000000000000000e+00  1.7746963131052121e-01 -2.2152850711356040e-04 0.0000000000000000e+00  1.7684404571257523e-01 7.4788636187065694e-04 0.0000000000000000e+00  1.7927021261752077e-01 8.7058468028023003e-04 0.0000000000000000e+00  1.7861039072152174e-01 1.7399440005345869e-03 0.0000000000000000e+00  1.7634696475969669e-01 1.5567169906688316e-03 0.0000000000000000e+00  1.7807155334448066e-01 2.4632051700288738e-03 0.0000000000000000e+00  1.7595712180966119e-01 2.2289559378182145e-03 0.0000000000000000e+00  1.7763930814259202e-01 3.0581317180226018e-03 0.0000000000000000e+00  1.7566308792498975e-01 2.7803019589315728e-03 0.0000000000000000e+00  1.7729379260544703e-01 3.5400137402395661e-03 0.0000000000000000e+00  1.7927074845701643e-01 3.8317577355729527e-03 0.0000000000000000e+00  1.7889364380285516e-01 4.2552700651864381e-03 0.0000000000000000e+00  1.8084327109380605e-01 4.5530826311161662e-03 0.0000000000000000e+00  1.8043190267949924e-01 4.9242846493421592e-03 0.0000000000000000e+00  1.7856971930463686e-01 4.5844127861781742e-03 0.0000000000000000e+00  1.8011082826761593e-01 5.2184570571923933e-03 0.0000000000000000e+00  1.8192424080183631e-01 5.5638289304656922e-03 0.0000000000000000e+00  1.8157866554187216e-01 5.8187827052574503e-03 0.0000000000000000e+00  1.7982583333035262e-01 5.4354198184504389e-03 0.0000000000000000e+00  1.8129706859984379e-01 6.0147565132468587e-03 0.0000000000000000e+00  1.8302296455874270e-01 6.3970185522749402e-03 0.0000000000000000e+00  1.8270950421173096e-01 6.5756682649916187e-03 0.0000000000000000e+00  1.8105796806507915e-01 6.1567975567345719e-03 0.0000000000000000e+00  1.7635035984155806e-01 -7.5995089685611311e-03 0.0000000000000000e+00  2.0175017303879902e-01 1.2694264733794170e-02 0.0000000000000000e+00  1.8440987310528256e-01 6.9586245538946307e-03 0.0000000000000000e+00  1.8408715388086005e-01 7.1293364210470002e-03 0.0000000000000000e+00  1.8577308829483333e-01 7.5129113284070652e-03 0.0000000000000000e+00  1.6245293993388096e-01 -1.0277360213182225e-02 0.0000000000000000e+00  1.5352385643407745e-01 -2.6964851632310275e-02 0.0000000000000000e+00  1.8543453921260600e-01 7.6838578464052867e-03 0.0000000000000000e+00  1.8708954189921820e-01 8.0651799606026326e-03 0.0000000000000000e+00  2.2113510877920070e-01 -4.5445072399601195e-02 0.0000000000000000e+00  1.8296275426197414e-01 6.6044183178656860e-03 0.0000000000000000e+00  2.0366523655900037e-01 3.1404667613854128e-03 0.0000000000000000e+00  1.8614607254050761e-01 7.3021942788488257e-03 0.0000000000000000e+00  1.7629314109464042e-01 7.0334411941023567e-04 0.0000000000000000e+00  1.7974512749750057e-01 -8.4508761898750964e-02 0.0000000000000000e+00  1.5988249111843472e-01 -1.2753608883220625e-03 0.0000000000000000e+00  1.8674730287180683e-01 8.2462004572254107e-03 0.0000000000000000e+00  1.8514762003179688e-01 7.8258255206607053e-03 0.0000000000000000e+00  1.8837256841007144e-01 8.6265742007171908e-03 0.0000000000000000e+00  1.5507245830381233e-01 -1.6205902714118883e-02 0.0000000000000000e+00  1.9927146065426285e-01 1.6800397604350068e-02 0.0000000000000000e+00  1.8802977362377318e-01 8.8253827178833531e-03 0.0000000000000000e+00  1.8962088716083320e-01 9.2049820478639754e-03 0.0000000000000000e+00  1.9001083052702550e-01 8.9674700234325597e-03 0.0000000000000000e+00  1.6031406335446452e-01 -1.6866353552524407e-03 0.0000000000000000e+00  1.9121225863748795e-01 9.5433785476515334e-03 0.0000000000000000e+00  1.7398582565954840e-01 1.9689136279490049e-03 0.0000000000000000e+00  1.7382971301656899e-01 2.4819256028498558e-03 0.0000000000000000e+00  1.7217767404601109e-01 1.6931762927244554e-03 0.0000000000000000e+00  1.7215585695466060e-01 2.1725148763847759e-03 0.0000000000000000e+00  1.7055020350155259e-01 1.4133561522830579e-03 0.0000000000000000e+00  1.7065291817698655e-01 1.8611296136175608e-03 0.0000000000000000e+00  1.6911472933965482e-01 1.1417458697448285e-03 0.0000000000000000e+00  1.8007086656213997e-01 -1.7079196985705044e-04 0.0000000000000000e+00  1.8181007936847723e-01 9.5077566657349763e-04 0.0000000000000000e+00  1.8277598747014767e-01 -1.6674783718461760e-04 0.0000000000000000e+00  1.8443270162981334e-01 9.8585268043385830e-04 0.0000000000000000e+00  1.8555234949583527e-01 -2.1090665264063052e-04 0.0000000000000000e+00  1.8710683504728773e-01 9.7556465826228620e-04 0.0000000000000000e+00  1.8836566888030767e-01 -2.9863116484266783e-04 0.0000000000000000e+00  1.8928380089594107e-01 9.4298281725697219e-03 0.0000000000000000e+00  2.0694823434194126e-01 -7.5955412644412176e-02 0.0000000000000000e+00  1.9164198736172747e-01 9.2670062278479987e-03 0.0000000000000000e+00  1.5952250009754299e-01 -9.2660418339350209e-02 0.0000000000000000e+00  1.6932572599254814e-01 1.5567646370335411e-03 0.0000000000000000e+00  1.6786803991760224e-01 8.8695636322736685e-04 0.0000000000000000e+00  1.6759278120078525e-01 3.9466683675958453e-04 0.0000000000000000e+00  1.8979833825294165e-01 9.2050532556768594e-04 0.0000000000000000e+00  1.7080488433288712e-01 2.2088881225870690e-03 0.0000000000000000e+00  1.6957802233694716e-01 1.8713045346124501e-03 0.0000000000000000e+00  1.7100280067297127e-01 2.4662311572789179e-03 0.0000000000000000e+00  1.8856871544146442e-01 2.0651599644976883e-03 0.0000000000000000e+00  1.9278550292699989e-01 9.8397976016768758e-03 0.0000000000000000e+00  1.9117797712409307e-01 -4.2748884280699987e-04 0.0000000000000000e+00  1.8978439313341194e-01 -1.7978569666812843e-03 0.0000000000000000e+00  1.6987505173481787e-01 2.0967189653942875e-03 0.0000000000000000e+00  1.7124289735402623e-01 2.6421462563795063e-03 0.0000000000000000e+00  1.9272250240005884e-01 -2.0000021415905980e-03 0.0000000000000000e+00  1.9137344373432610e-01 -3.5470066988139005e-03 0.0000000000000000e+00  1.6075082820632750e-01 -1.0332127059260923e-02 0.0000000000000000e+00  1.9113069234486985e-01 2.0360606716472310e-03 0.0000000000000000e+00  1.8993983997452996e-01 3.0626263796442663e-03 0.0000000000000000e+00  1.9324503315095412e-01 9.5232263567952159e-03 0.0000000000000000e+00  1.6645024554598997e-01 2.0538416770531261e-04 0.0000000000000000e+00  1.6610772702905363e-01 -3.7491772308828543e-04 0.0000000000000000e+00  1.3845303989020183e-01 -4.4705036397060721e-02 0.0000000000000000e+00  1.9432088687125862e-01 1.0093618379351061e-02 0.0000000000000000e+00  1.9389489746244132e-01 1.0437711433194417e-02 0.0000000000000000e+00  1.9238190156894042e-01 3.0490530625816117e-03 0.0000000000000000e+00  1.9122278819830807e-01 3.9719923347599825e-03 0.0000000000000000e+00  1.7878691753659132e-01 8.7694038802627343e-04 0.0000000000000000e+00  1.7020948744328179e-01 2.2402411960278762e-03 0.0000000000000000e+00  1.7152294210507898e-01 2.7453779002199622e-03 0.0000000000000000e+00  2.0312632955258461e-01 1.5253908901889638e-02 0.0000000000000000e+00  1.9442921461576590e-01 -3.8209704091284112e-03 0.0000000000000000e+00  1.9313328849506012e-01 -5.5709656550434836e-03 0.0000000000000000e+00  1.6508742199014770e-01 -4.8179384387119563e-04 0.0000000000000000e+00  1.6468219243334981e-01 -1.1589791616486