<?xml version="1.0"?>
<VTKFile type="UnstructuredGrid"  version="0.1"  >
<UnstructuredGrid>
<Piece  NumberOfPoints="1237" NumberOfCells="2333">
<Points>
<DataArray  type="Float64"  NumberOfComponents="3"  format="ascii">40 0 0  20 0 0  20 10.75773211542438 0  23.32001784119009 8.161232808552842 0  23.32001784119009 12.5 0  40 12.5 0  39.5 0 0  39 0 0  38.5 0 0  38 0 0  37.5 0 0  37 0 0  36.5 0 0  36 0 0  35.5 0 0  35 0 0  34.5 0 0  34 0 0  33.5 0 0  33 0 0  32.5 0 0  32 0 0  31.5 0 0  31 0 0  30.5 0 0  30 0 0  29.5 0 0  29 0 0  28.5 0 0  28 0 0  27.5 0 0  27 0 0  26.5 0 0  26 0 0  25.5 0 0  25 0 0  24.5 0 0  24 0 0  23.5 0 0  23 0 0  22.5 0 0  22 0 0  21.5 0 0  21 0 0  20.5 0 0  20 0.4889878234283808 0  20 0.9779756468567616 0  20 1.466963470285142 0  20 1.955951293713523 0  20 2.444939117141904 0  20 2.933926940570285 0  20 3.422914763998666 0  20 3.911902587427047 0  20 4.400890410855427 0  20 4.889878234283808 0  20 5.378866057712189 0  20 5.86785388114057 0  20 6.356841704568951 0  20 6.845829527997331 0  20 7.334817351425713 0  20 7.823805174854093 0  20 8.312792998282474 0  20 8.801780821710855 0  20 9.290768645139236 0  20 9.779756468567616 0  20 10.268744291996 0  20.36889087124334 10.46923219243865 0  20.73778174248669 10.18073226945293 0  21.10667261373003 9.8922323464672 0  21.47556348497337 9.603732423481473 0  21.84445435621672 9.315232500495748 0  22.21334522746006 9.026732577510021 0  22.5822360987034 8.738232654524296 0  22.95112696994675 8.449732731538569 0  23.32001784119009 8.643318052046972 0  23.32001784119009 9.1254032955411 0  23.32001784119009 9.607488539035229 0  23.32001784119009 10.08957378252936 0  23.32001784119009 10.57165902602349 0  23.32001784119009 11.05374426951762 0  23.32001784119009 11.53582951301174 0  23.32001784119009 12.01791475650587 0  23.81060555174332 12.5 0  24.30119326229655 12.5 0  24.79178097284979 12.5 0  25.28236868340302 12.5 0  25.77295639395625 12.5 0  26.26354410450949 12.5 0  26.75413181506272 12.5 0  27.24471952561595 12.5 0  27.73530723616918 12.5 0  28.22589494672242 12.5 0  28.71648265727565 12.5 0  29.20707036782888 12.5 0  29.69765807838212 12.5 0  30.18824578893535 12.5 0  30.67883349948858 12.5 0  31.16942121004181 12.5 0  31.66000892059505 12.5 0  32.15059663114828 12.5 0  32.64118434170151 12.5 0  33.13177205225475 12.5 0  33.62235976280797 12.5 0  34.11294747336121 12.5 0  34.60353518391444 12.5 0  35.09412289446767 12.5 0  35.5847106050209 12.5 0  36.07529831557414 12.5 0  36.56588602612737 12.5 0  37.0564737366806 12.5 0  37.54706144723384 12.5 0  38.03764915778707 12.5 0  38.5282368683403 12.5 0  39.01882457889354 12.5 0  39.50941228944677 12.5 0  40 12 0  40 11.5 0  40 11 0  40 10.5 0  40 10 0  40 9.5 0  40 9 0  40 8.5 0  40 8 0  40 7.5 0  40 7 0  40 6.5 0  40 6 0  40 5.5 0  40 5 0  40 4.5 0  40 4 0  40 3.5 0  40 3 0  40 2.5 0  40 2 0  40 1.5 0  40 1 0  40 0.5 0  29.25 0.4330127018922196 0  33.3405041077511 12.09410396309442 0  30.94918886791164 12.09643456138461 0  32.19559681668117 0.4998202975286787 0  39.50204637372868 6.250971982340874 0  28.47118880199903 12.07513857987646 0  34.7336247353719 0.4822984931293988 0  26.76146032322314 0.3933011005010352 0  35.34420464619715 12.11345739290216 0  24.75264144915703 0.4057017524964337 0  23.73115884491203 8.403869969869337 0  23.70413561330337 7.911099998121477 0  24.13520377989035 8.163581624725605 0  24.13927373904213 7.694603787196284 0  24.54595123100546 7.930269646586577 0  24.54827073778986 7.457744556775855 0  24.95799452654714 7.707114343824431 0  39.56698729810778 4.25 0  24.95613787813082 7.22062643062978 0  25.37367414607577 7.472163800093321 0  39.56698729810778 8.25 0  25.36980249237527 6.980194390717124 0  25.7952311578014 7.231652272354312 0  25.78892924981395 6.737812773949473 0  26.21372502949038 6.991352683607368 0  26.20698204737311 6.495775386108931 0  26.62924190164557 6.744745192731182 0  25.36326416068987 6.493399764661331 0  20.42347587723024 3.667408675712856 0  26.62586117958646 6.254498294110314 0  27.04847123786089 6.502327134145753 0  27.04523821562024 6.011866468531314 0  27.46578590480651 6.254560917554209 0  27.47100536415623 6.76158401997723 0  27.88592846859911 6.49644911219931 0  27.88657894877454 6.010321567095969 0  28.30830974049502 6.253238481469507 0  28.30837804107014 6.744749698018952 0  28.73256751190477 6.500864028328247 0  28.73123728201363 6.009512713694582 0  29.15624873088024 6.256924738166332 0  29.15465116251243 5.76487981394127 0  29.57852526021227 6.009655985058634 0  29.57768804605161 6.498543842389507 0  30.00240080712422 6.254368129621883 0  30.00216609220282 5.764939716286947 0  30.42720324007825 6.00937985896566 0  30.42687800522801 6.500102723213045 0  30.85223824827688 6.255023862388468 0  30.85227866621583 6.747893145060111 0  31.27864772379728 6.50293640076743 0  31.27816393855954 6.009727910096462 0  31.70505682774664 6.257689107113691 0  31.70444063074116 5.763937183573232 0  32.13086327979797 6.01039136156072 0  32.13254840335602 6.50805454447464 0  32.55749796320324 6.257926997878723 0  32.55790198193287 5.763990272849959 0  32.98484024239151 6.011163229341394 0  32.98468876155972 6.507791016410219 0  33.41201176739361 6.258944109006473 0  33.41118787400525 6.754215580602065 0  33.83903933185628 6.506578402949245 0  33.83776450072169 6.012700161356119 0  36.75000004521164 0.4040655201524821 0  33.83828560180123 6.99979634632711 0  34.26632023471493 6.753943258167233 0  25.79836975936484 7.750614885438598 0  34.26571445476628 7.247846182671698 0  26.62447931483727 5.768496086924348 0  33.41016144841366 7.247489464864637 0  23.26484998236942 0.4355959759504762 0  39.47767409971136 9.774157085542059 0  20.37102818308749 5.111255959236547 0  30.74115987468233 0.4260294678576857 0  36.85462602720816 12.09580477618368 0  24.11881577138849 7.211660606786332 0  34.69399204595115 7.001514569727298 0  34.69333308930574 7.495575874699423 0  26.99942567033933 12.07513857987646 0  35.12183066920245 7.249180341671048 0  35.12173940010012 6.753336873144357 0  35.12099439768537 7.743459887638235 0  39.5205010308974 2.770943123322679 0  34.6925541896848 7.989735812163179 0  35.1199280733824 8.237628498670491 0  35.5489570819697 7.497043722405071 0  25.52136929613361 12.09201542149462 0  23.71727814228527 9.878853087083243 0  34.69165982783874 8.483832070317121 0  20.42347587723024 2.200445205427713 0  20.40199975096862 6.602133957890027 0  35.11882406264219 8.731522656295173 0  34.69082984713072 8.977383418962674 0  22.85814257001456 7.949007671828896 0  35.11780266196267 9.225118352264044 0  35.5456688458743 8.97930781070615 0  34.6901747971428 9.470994507528541 0  34.26332566313504 9.223464886910236 0  38.30845373958124 12.14276426230746 0  38.24995304541961 0.4330280942693454 0  35.54471038006967 9.47289403540238 0  35.97275162944422 9.226958789045094 0  34.26250940995556 9.716483518835421 0  33.83617025743608 9.469277172642688 0  21.7340149891433 0.401437358529904 0  35.97155535825099 9.720670285207406 0  36.39991580354757 9.47473516324791 0  36.40115105987091 8.980445840064906 0  36.8293223945781 9.228812266242169 0  36.83027680031886 8.733409672160228 0  36.82937886234079 9.726240432293221 0  24.54689647334726 8.412257950886069 0  37.25905116165404 8.982313711733628 0  37.25997305610186 8.486216991235647 0  20.42347587723024 8.068299086568283 0  33.83531631021035 9.961936528202129 0  33.40915162693625 9.714908450190183 0  33.40999071198175 9.222365290052888 0  32.98312164955322 9.468013378986758 0  32.98232533192467 9.960357913371489 0  32.55649041090155 9.713540286010305 0  32.55716409482559 9.22138177756667 0  32.13072097833527 9.466842875763056 0  32.13134690913734 8.974925743147271 0  31.70511321813675 9.220396270101096 0  31.70454860101631 9.712012916338724 0  31.27927409762265 9.46551515462207 0  31.27986419565595 8.974360911135641 0  30.85434160322217 9.21955368731777 0  30.85370347405754 9.710292581097812 0  30.42913018647284 9.464527823199624 0  30.42855849105062 9.956076388604295 0  30.00402005517932 9.709125936186767 0  30.00483720173133 9.219188785251708 0  29.58040412255847 9.463238138328169 0  29.58061008511738 8.973194032600222 0  29.1568981458808 9.217241930754462 0  29.14852592586941 9.713853887799299 0  28.72200058331207 9.443806932902497 0  28.73159635643682 8.970622595256227 0  28.30980556139925 9.214209125078561 0  28.30472507159082 9.692464589716792 0  27.88921958166379 9.457687636964966 0  27.89087779161778 8.973849960372611 0  27.46991732673502 9.216760843325392 0  27.46943967344999 9.701996318230238 0  27.04933681638691 9.459437956257162 0  27.04906585633744 9.944159341170469 0  26.62903507982926 9.701670717256324 0  26.62922250277109 10.18602632370839 0  26.20932433237989 9.943212311746144 0  27.47065351007394 8.731136525596233 0  30.01739830813874 10.18516774394902 0  30.85486231910836 8.728638683729596 0  27.79151622647296 0.4929516407812331 0  25.72787428572898 0.4203015720582606 0  39.51800232829788 10.74687521981088 0  32.55565553370337 10.20550491332457 0  23.71397813094729 10.84389695367563 0  39.55866705919792 7.282937290919316 0  34.26151610398144 10.20921196213486 0  33.24156655295506 0.4281331195350004 0  39.51956284423457 5.2520447140217 0  35.74892763464109 0.3869961452545816 0  39.50122048082013 1.711605409387513 0  30.42791123765274 6.997440594388772 0  31.28040414194009 8.483275345705172 0  30.4234258707557 5.518631778562273 0  28.7358029406759 7.007173457727339 0  32.98538156818136 5.517383581504308 0  32.55804192545296 5.270017070870598 0  32.9860406688273 5.023228253601818 0  32.5577628407919 4.775480069384099 0  32.98666097442664 4.528441394140456 0  32.55783389180964 4.280499741094304 0  32.98729209317171 4.033332926003548 0  33.41609906236364 4.281403886949708 0  33.41639070694355 3.785703949940102 0  33.84610858469756 4.034184036428127 0  32.55814657378009 3.785503156226257 0  33.8462978288884 3.537717351573198 0  34.27647778394053 3.786624188215306 0  34.27709673228912 3.289859426030074 
[...]
<PointData  Vectors="u"> 
<DataArray  type="Float64"  Name="u"  NumberOfComponents="3" format="ascii">2.5468523080668731e-01 2.1235366857115186e-02 0.0000000000000000e+00  2.8286549292465790e-01 -9.4274700583075091e-02 0.0000000000000000e+00  5.9202269818701921e-02 -1.5236291181448985e-01 0.0000000000000000e+00  1.8349617759506762e-01 -3.5599717033118067e-02 0.0000000000000000e+00  2.0810826504572308e-01 0.0000000000000000e+00 0.0000000000000000e+00  2.2666191513109674e-01 0.0000000000000000e+00 0.0000000000000000e+00  2.5417989665683777e-01 2.0032589837639864e-02 0.0000000000000000e+00  2.5366610985035953e-01 1.8844768915676061e-02 0.0000000000000000e+00  2.5315057025067383e-01 1.7696481492803555e-02 0.0000000000000000e+00  2.5265231844505559e-01 1.6604010607555560e-02 0.0000000000000000e+00  2.5218847458636112e-01 1.5571778108801669e-02 0.0000000000000000e+00  2.5177445979348440e-01 1.4593531675560453e-02 0.0000000000000000e+00  2.5142144750532619e-01 1.3675076603116681e-02 0.0000000000000000e+00  2.5115151625056858e-01 1.2797562460215161e-02 0.0000000000000000e+00  2.5096666430057629e-01 1.1943815750460133e-02 0.0000000000000000e+00  2.5088471178662136e-01 1.1122981455014074e-02 0.0000000000000000e+00  2.5091006244546771e-01 1.0278568927475426e-02 0.0000000000000000e+00  2.5105371838201440e-01 9.4571346746185943e-03 0.0000000000000000e+00  2.5131064562918509e-01 8.5734379417346900e-03 0.0000000000000000e+00  2.5170776796828553e-01 7.6499379369803378e-03 0.0000000000000000e+00  2.5223953032909896e-01 6.6571619363297784e-03 0.0000000000000000e+00  2.5290933673256694e-01 5.5518314228979199e-03 0.0000000000000000e+00  2.5374300384997056e-01 4.3740060516369887e-03 0.0000000000000000e+00  2.5469490689523488e-01 3.0178329462710101e-03 0.0000000000000000e+00  2.5581121397094714e-01 1.5139834506522297e-03 0.0000000000000000e+00  2.5709048003370211e-01 -1.8192921318395053e-04 0.0000000000000000e+00  2.5851320182608806e-01 -2.1150426864306039e-03 0.0000000000000000e+00  2.6007291403897875e-01 -4.2807498093158178e-03 0.0000000000000000e+00  2.6173599911810064e-01 -6.7576391433237732e-03 0.0000000000000000e+00  2.6356464529905399e-01 -9.5050341621141128e-03 0.0000000000000000e+00  2.6543345464860141e-01 -1.2613686708306779e-02 0.0000000000000000e+00  2.6742616545513709e-01 -1.6083625336520382e-02 0.0000000000000000e+00  2.6946214188964956e-01 -1.9945659691986861e-02 0.0000000000000000e+00  2.7145328586541129e-01 -2.4207843692221120e-02 0.0000000000000000e+00  2.7344751629958014e-01 -2.8870021692727264e-02 0.0000000000000000e+00  2.7534671629409840e-01 -3.3921409984181847e-02 0.0000000000000000e+00  2.7712474623315436e-01 -3.9365358585231006e-02 0.0000000000000000e+00  2.7870957417757075e-01 -4.5127599042255648e-02 0.0000000000000000e+00  2.8007510345510078e-01 -5.1168496839653126e-02 0.0000000000000000e+00  2.8116907859982743e-01 -5.7421214373450741e-02 0.0000000000000000e+00  2.8197896274193268e-01 -6.3754279260672120e-02 0.0000000000000000e+00  2.8252075098566909e-01 -7.0141819559556853e-02 0.0000000000000000e+00  2.8280162438186390e-01 -7.6404933277447615e-02 0.0000000000000000e+00  2.8290047960798714e-01 -8.2516593709250727e-02 0.0000000000000000e+00  2.8288960729599699e-01 -8.8463719297582608e-02 0.0000000000000000e+00  2.7719974278253467e-01 -9.4251222529268888e-02 0.0000000000000000e+00  2.7166662325427599e-01 -9.4235217369355292e-02 0.0000000000000000e+00  2.6629879820092567e-01 -9.4319620849381794e-02 0.0000000000000000e+00  2.6111393005821604e-01 -9.4581377401225422e-02 0.0000000000000000e+00  2.5603887139831155e-01 -9.5113183111321956e-02 0.0000000000000000e+00  2.5105243956884654e-01 -9.5979081521303578e-02 0.0000000000000000e+00  2.4600867621567787e-01 -9.7242137729457362e-02 0.0000000000000000e+00  2.4081112160598478e-01 -9.8971743618846586e-02 0.0000000000000000e+00  2.3537392903177387e-01 -1.0124606427696640e-01 0.0000000000000000e+00  2.2946396266108993e-01 -1.0412407099742721e-01 0.0000000000000000e+00  2.2288553142625597e-01 -1.0763581599403227e-01 0.0000000000000000e+00  2.1537378687732658e-01 -1.1178578232390726e-01 0.0000000000000000e+00  2.0668151265223603e-01 -1.1651645624270222e-01 0.0000000000000000e+00  1.9650537261432832e-01 -1.2179273601482231e-01 0.0000000000000000e+00  1.8456913600097918e-01 -1.2731474627409917e-01 0.0000000000000000e+00  1.7087243089003215e-01 -1.3272190982197563e-01 0.0000000000000000e+00  1.5557961249920671e-01 -1.3775995864254578e-01 0.0000000000000000e+00  1.3873173729029545e-01 -1.4228158758431275e-01 0.0000000000000000e+00  1.2067137658055345e-01 -1.4596157355524927e-01 0.0000000000000000e+00  1.0142506288533053e-01 -1.4901078685635777e-01 0.0000000000000000e+00  8.0942865504738268e-02 -1.5122877156268136e-01 0.0000000000000000e+00  7.2472589211363542e-02 -1.3634570286995984e-01 0.0000000000000000e+00  8.5602042038734491e-02 -1.2215781808926898e-01 0.0000000000000000e+00  9.8365202240200164e-02 -1.0948491437856343e-01 0.0000000000000000e+00  1.1076431242127027e-01 -9.7918084107534248e-02 0.0000000000000000e+00  1.2279785276710951e-01 -8.7088023507132808e-02 0.0000000000000000e+00  1.3472397386861562e-01 -7.6611328294759085e-02 0.0000000000000000e+00  1.4695575015694257e-01 -6.5898496722105029e-02 0.0000000000000000e+00  1.6059790964529436e-01 -5.4448600224260374e-02 0.0000000000000000e+00  1.9582087784905902e-01 -2.5890210106973430e-02 0.0000000000000000e+00  2.0057686838301256e-01 -2.0359569938289059e-02 0.0000000000000000e+00  2.0334439943840865e-01 -1.6418515921862459e-02 0.0000000000000000e+00  2.0514002257592162e-01 -1.3170863954091309e-02 0.0000000000000000e+00  2.0633379798629384e-01 -1.0265801016239086e-02 0.0000000000000000e+00  2.0715254230996913e-01 -7.5637909442484276e-03 0.0000000000000000e+00  2.0768321223694147e-01 -4.9818921008795052e-03 0.0000000000000000e+00  2.0798465631717608e-01 -2.4688204709602491e-03 0.0000000000000000e+00  2.0705576186014754e-01 0.0000000000000000e+00 0.0000000000000000e+00  2.0601110223891414e-01 0.0000000000000000e+00 0.0000000000000000e+00  2.0505909883808179e-01 0.0000000000000000e+00 0.0000000000000000e+00  2.0426448823391197e-01 0.0000000000000000e+00 0.0000000000000000e+00  2.0370285278088091e-01 0.0000000000000000e+00 0.0000000000000000e+00  2.0335094553125316e-01 0.0000000000000000e+00 0.0000000000000000e+00  2.0325222170950072e-01 0.0000000000000000e+00 0.0000000000000000e+00  2.0337509825302372e-01 0.0000000000000000e+00 0.0000000000000000e+00  2.0370882770031123e-01 0.0000000000000000e+00 0.0000000000000000e+00  2.0420552373595768e-01 0.0000000000000000e+00 0.0000000000000000e+00  2.0486191255988576e-01 0.0000000000000000e+00 0.0000000000000000e+00  2.0563444805559769e-01 0.0000000000000000e+00 0.0000000000000000e+00  2.0649773108364938e-01 0.0000000000000000e+00 0.0000000000000000e+00  2.0742773811990872e-01 0.0000000000000000e+00 0.0000000000000000e+00  2.0841151284729320e-01 0.0000000000000000e+00 0.0000000000000000e+00  2.0942794786039598e-01 0.0000000000000000e+00 0.0000000000000000e+00  2.1045811755791510e-01 0.0000000000000000e+00 0.0000000000000000e+00  2.1149664712954108e-01 0.0000000000000000e+00 0.0000000000000000e+00  2.1253127527549015e-01 0.0000000000000000e+00 0.0000000000000000e+00  2.1355774598942440e-01 0.0000000000000000e+00 0.0000000000000000e+00  2.1456780638999351e-01 0.0000000000000000e+00 0.0000000000000000e+00  2.1556359628016639e-01 0.0000000000000000e+00 0.0000000000000000e+00  2.1654317201408288e-01 0.0000000000000000e+00 0.0000000000000000e+00  2.1749967924409067e-01 0.0000000000000000e+00 0.0000000000000000e+00  2.1843730309434006e-01 0.0000000000000000e+00 0.0000000000000000e+00  2.1935411818792119e-01 0.0000000000000000e+00 0.0000000000000000e+00  2.2025872375118771e-01 0.0000000000000000e+00 0.0000000000000000e+00  2.2115498783099002e-01 0.0000000000000000e+00 0.0000000000000000e+00  2.2204320243481862e-01 0.0000000000000000e+00 0.0000000000000000e+00  2.2293057381422032e-01 0.0000000000000000e+00 0.0000000000000000e+00  2.2383162753720584e-01 0.0000000000000000e+00 0.0000000000000000e+00  2.2474295752341597e-01 0.0000000000000000e+00 0.0000000000000000e+00  2.2568543147363748e-01 0.0000000000000000e+00 0.0000000000000000e+00  2.2675324385818069e-01 1.5380592702557597e-03 0.0000000000000000e+00  2.2697568703713611e-01 3.0653502973380800e-03 0.0000000000000000e+00  2.2735616812503218e-01 4.5704151115058380e-03 0.0000000000000000e+00  2.2788379768600373e-01 6.0429756898727838e-03 0.0000000000000000e+00  2.2854814348627969e-01 7.4707395996617566e-03 0.0000000000000000e+00  2.2934741989166416e-01 8.8571848899813860e-03 0.0000000000000000e+00  2.3026728377493330e-01 1.0181457594446842e-02 0.0000000000000000e+00  2.3130530190331861e-01 1.1449823221044167e-02 0.0000000000000000e+00  2.3246168783912588e-01 1.2657090923571330e-02 0.0000000000000000e+00  2.3371193421899994e-01 1.3786735972050218e-02 0.0000000000000000e+00  2.3504416209846626e-01 1.4828548227047563e-02 0.0000000000000000e+00  2.3644311558095335e-01 1.5779603874024498e-02 0.0000000000000000e+00  2.3789744295345078e-01 1.6640811113438167e-02 0.0000000000000000e+00  2.3939054525894576e-01 1.7409312749546907e-02 0.0000000000000000e+00  2.4091560000644544e-01 1.8086837449475621e-02 0.0000000000000000e+00  2.4243496452444313e-01 1.8672119026474171e-02 0.0000000000000000e+00  2.4396211880122332e-01 1.9173887819969811e-02 0.0000000000000000e+00  2.4546388102677016e-01 1.9592897404440628e-02 0.0000000000000000e+00  2.4692520637747659e-01 1.9940965593198339e-02 0.0000000000000000e+00  2.4834206549118151e-01 2.0226960136144976e-02 0.0000000000000000e+00  2.4970554480235069e-01 2.0464300279730865e-02 0.0000000000000000e+00  2.5101190917368943e-01 2.0670008722620318e-02 0.0000000000000000e+00  2.5227256895033023e-01 2.0853699135138404e-02 0.0000000000000000e+00  2.5348697379977353e-01 2.1040650095474223e-02 0.0000000000000000e+00  2.5726069313424738e-01 -2.6652724049808572e-03 0.0000000000000000e+00  2.1405249813222255e-01 4.5358266019723164e-04 0.0000000000000000e+00  2.0902819696463559e-01 1.4417798027081179e-04 0.0000000000000000e+00  2.5135912689371909e-01 6.2572451379815123e-03 0.0000000000000000e+00  2.3640632902495146e-01 1.4877985954916371e-02 0.0000000000000000e+00  2.0454653853393798e-01 -5.5380957616973838e-04 0.0000000000000000e+00  2.4995725238288924e-01 1.0682824719306367e-02 0.0000000000000000e+00  2.6533540166589087e-01 -1.7280988921302615e-02 0.0000000000000000e+00  2.1803462411486826e-01 5.8715555930330442e-04 0.0000000000000000e+00  2.7196510287306896e-01 -3.6025419632001614e-02 0.0000000000000000e+00  1.9070252786716463e-01 -2.9023023555983560e-02 0.0000000000000000e+00  1.9120769822735795e-01 -3.0224526052458945e-02 0.0000000000000000e+00  1.9395894789841939e-01 -2.5651384477184621e-02 0.0000000000000000e+00  1.9675776341558437e-01 -2.6306887339765755e-02 0.0000000000000000e+00  1.9772245450399978e-01 -2.2590612636930726e-02 0.0000000000000000e+00  2.0127194644219576e-01 -2.3246634433471646e-02 0.0000000000000000e+00  2.0127559641734619e-01 -1.9800678721803990e-02 0.0000000000000000e+00  2.4266401161651757e-01 1.7692870979152675e-02 0.0000000000000000e+00  2.0510079831755409e-01 -2.0486898695889939e-02 0.0000000000000000e+00  2.0463293639835911e-01 -1.7249514826049920e-02 0.0000000000000000e+00  2.3110557599393300e-01 1.1137674821080332e-02 0.0000000000000000e+00  2.0853751839872184e-01 -1.7894091455627807e-02 0.0000000000000000e+00  2.0780447012113579e-01 -1.4857148325820625e-02 0.0000000000000000e+00  2.1167656234209956e-01 -1.5443009535717504e-02 0.0000000000000000e+00  2.1074128831477065e-01 -1.2646974006895255e-02 0.0000000000000000e+00  2.1455511668439287e-01 -1.3156857322706658e-02 0.0000000000000000e+00  2.1352798290944783e-01 -1.0597681158045109e-02 0.0000000000000000e+00  2.1308404419680710e-01 -1.8820731159219738e-02 0.0000000000000000e+00  2.4400020452170754e-01 -9.3122138398686716e-02 0.0000000000000000e+00  2.1722700204993883e-01 -1.1006558662195616e-02 0.0000000000000000e+00  2.1612894514776498e-01 -8.6546423941673035e-03 0.0000000000000000e+00  2.1974226117744217e-01 -8.9869868656986662e-03 0.0000000000000000e+00  2.1862159104290982e-01 -6.8429986998599793e-03 0.0000000000000000e+00  2.1526256547938960e-01 -6.6490781007942767e-03 0.0000000000000000e+00  2.1776898667477376e-01 -5.0163470222157345e-03 0.0000000000000000e+00  2.2097092488763770e-01 -5.1258618929870062e-03 0.0000000000000000e+00  2.2004920462635241e-01 -3.4542412337512664e-03 0.0000000000000000e+00  2.1709611096907525e-01 -3.4460109067698742e-03 0.0000000000000000e+00  2.1930324084094333e-01 -2.0244891440805461e-03 0.0000000000000000e+00  2.2223408214915094e-01 -1.9952147459128579e-03 0.0000000000000000e+00  2.2142894343091654e-01 -7.0094301048834390e-04 0.0000000000000000e+00  2.2432972005989060e-01 -6.3522383892287515e-04 0.0000000000000000e+00  2.2349092035662527e-01 5.2803349438126153e-04 0.0000000000000000e+00  2.2080970431834160e-01 3.8224670978899184e-04 0.0000000000000000e+00  2.2280299596851114e-01 1.5023005759242144e-03 0.0000000000000000e+00  2.2545834843625731e-01 1.6715242449491551e-03 0.0000000000000000e+00  2.2473038059419323e-01 2.5436515621026900e-03 0.0000000000000000e+00  2.2224143352786835e-01 2.3134554956844924e-03 0.0000000000000000e+00  2.2412201901770934e-01 3.2633166817426788e-03 0.0000000000000000e+00  2.2178520554626033e-01 2.9807425061374191e-03 0.0000000000000000e+00  2.2361614562302834e-01 3.8511628958520592e-03 0.0000000000000000e+00  2.2594179030053879e-01 4.1494995134831068e-03 0.0000000000000000e+00  2.2539481991494040e-01 4.6671026050151753e-03 0.0000000000000000e+00  2.2769979010028912e-01 4.9770098287161895e-03 0.0000000000000000e+00  2.2712581053568529e-01 5.4344162649403276e-03 0.0000000000000000e+00  2.2493533294831161e-01 5.0781966113489334e-03 0.0000000000000000e+00  2.2664096220899824e-01 5.7975965737936761e-03 0.0000000000000000e+00  2.2879707186529438e-01 6.1602493316826670e-03 0.0000000000000000e+00  2.2828597594332398e-01 6.4850985151113771e-03 0.0000000000000000e+00  2.2623180302038595e-01 6.0790406433183508e-03 0.0000000000000000e+00  2.2785462458446923e-01 6.7397863152141163e-03 0.0000000000000000e+00  2.2591154030029884e-01 6.2943290603145506e-03 0.0000000000000000e+00  2.2749775879724232e-01 6.9358419967496367e-03 0.0000000000000000e+00  2.2942187096690211e-01 7.3819148924607328e-03 0.0000000000000000e+00  2.5078880074608578e-01 1.4016117748412679e-02 0.0000000000000000e+00  2.2566334642334510e-01 6.4537912117943073e-03 0.0000000000000000e+00  2.2720942285469617e-01 7.0840760630594560e-03 0.0000000000000000e+00  2.0458962935452790e-01 -1.4443870494110510e-02 0.0000000000000000e+00  2.2546903665309337e-01 6.5632702521555408e-03 0.0000000000000000e+00  2.2117950814352952e-01 -1.1516502509127854e-02 0.0000000000000000e+00  2.2408117999698582e-01 5.8192612960329612e-03 0.0000000000000000e+00  2.7543253188656575e-01 -5.3713942878073920e-02 0.0000000000000000e+00  2.2789641253753326e-01 7.3408888499850418e-03 0.0000000000000000e+00  2.2753897711904272e-01 -1.0020983442922078e-01 0.0000000000000000e+00  2.5383919075394712e-01 2.6203748532875981e-03 0.0000000000000000e+00  2.2084400039057314e-01 7.4162959356924405e-04 0.0000000000000000e+00  2.0260359070131673e-01 -2.8209078931012908e-02 0.0000000000000000e+00  2.2698245229019665e-01 7.1933979600552608e-03 0.0000000000000000e+00  2.2533349114825960e-01 6.6338005934235434e-03 0.0000000000000000e+00  2.0323927717306051e-01 -1.2437476046293591e-03 0.0000000000000000e+00  2.2681199057908616e-01 7.2717177006802313e-03 0.0000000000000000e+00  2.2847784108107400e-01 7.8404306119994327e-03 0.0000000000000000e+00  2.2525060612942058e-01 6.6721904864576976e-03 0.0000000000000000e+00  2.4706354979527204e-01 1.8779401077121227e-02 0.0000000000000000e+00  2.2379641604595782e-01 6.0457759366462716e-03 0.0000000000000000e+00  2.2380408736448865e-01 6.0448712834318373e-03 0.0000000000000000e+00  2.2669240340117663e-01 7.3252804360141545e-03 0.0000000000000000e+00  2.0388366086026533e-01 -1.9138338930023179e-03 0.0000000000000000e+00  2.0337680670364297e-01 -1.5553409976538557e-02 0.0000000000000000e+00  2.2238536263205910e-01 5.4337178513260915e-03 0.0000000000000000e+00  2.5874290280189433e-01 -9.0152678649226409e-02 0.0000000000000000e+00  2.0336778809368514e-01 -1.1044966802332062e-01 0.0000000000000000e+00  2.2248587653878704e-01 5.3940834755578275e-03 0.0000000000000000e+00  2.2111352978938820e-01 4.8024049870088806e-03 0.0000000000000000e+00  1.8300148517065898e-01 -5.3356463372457245e-02 0.0000000000000000e+00  2.2130721925454011e-01 4.7237439032526314e-03 0.0000000000000000e+00  2.2262965464009152e-01 5.3246979981873728e-03 0.0000000000000000e+00  2.1998952413251563e-01 4.1549503281501261e-03 0.0000000000000000e+00  2.1974224731311132e-01 4.2349238933576143e-03 0.0000000000000000e+00  2.2346452482290405e-01 8.0955043596865779e-04 0.0000000000000000e+00  2.5192910089276283e-01 1.6973490637640407e-02 0.0000000000000000e+00  2.2154234163536365e-01 4.6134280271543709e-03 0.0000000000000000e+00  2.2281671117448495e-01 5.2301861625213076e-03 0.0000000000000000e+00  2.1867880667837689e-01 3.6134871671760637e-03 0.0000000000000000e+00  2.1837546586615486e-01 3.6875635322417151e-03 0.0000000000000000e+00  2.7784295460480496e-01 -7.3405027799077857e-02 0.0000000000000000e+00  2.2181800446890132e-01 4.4747544120779924e-03 0.0000000000000000e+00  2.2304558758408327e-01 5.1127215911346505e-03 0.0000000000000000e+00  2.2410083421313304e-01 5.8957873268108895e-03 0.0000000000000000e+00  2.2428720481599820e-01 5.8080931670309033e-03 0.0000000000000000e+00  2.2539569757741140e-01 6.6199051978023359e-03 0.0000000000000000e+00  2.2331381933336358e-01 4.9684202125863039e-03 0.0000000000000000e+00  1.9649597093534074e-01 -2.1934760229055359e-02 0.0000000000000000e+00  2.2554386216635106e-01 6.5724360883912250e-03 0.0000000000000000e+00  2.2670100317732689e-01 7.4130981691483654e-03 0.0000000000000000e+00  1.6499663910435305e-01 -1.2247480236622083e-01 0.0000000000000000e+00  2.1737796043826990e-01 3.0954108890203298e-03 0.0000000000000000e+00  2.1701611794998191e-01 3.1572444918718315e-03 0.0000000000000000e+00  2.1811347905652276e-01 3.7118605731461594e-03 0.0000000000000000e+00  2.1669534473404550e-01 3.1622220186766051e-03 0.0000000000000000e+00  2.1566915202717085e-01 2.6431540239935918e-03 0.0000000000000000e+00  2.1528867260079171e-01 2.6224082828126029e-03 0.0000000000000000e+00  2.1641737159543514e-01 3.1019817500850737e-03 0.0000000000000000e+00  2.1495049884157047e-01 2.5277015371685569e-03 0.0000000000000000e+00  2.1618488581297965e-01 2.9676619779122047e-03 0.0000000000000000e+00  2.1465634836751785e-01 2.3490730132179438e-03 0.0000000000000000e+00  2.1350364602976890e-01 1.9585802789481455e-03 0.0000000000000000e+00  2.1314862532672607e-01 1.7283646235996025e-03 0.0000000000000000e+00  2.1440810038212024e-01 2.0759474061245787e-03 0.0000000000000000e+00  2.1283661221631733e-01 1.3919643947956474e-03 0.0000000000000000e+00  2.1167443178911846e-01 1.1100702227680901e-03 0.0000000000000000e+00  2.1130042353354583e-01 7.0203165194706533e-04 0.0000000000000000e+00  2.1024713355433727e-01 5.0123309208712592e-04 0.0000000000000000e+00  2.0981790530561764e-01 1.3655969575104451e-05 0.0000000000000000e+00  2.1096482507628503e-01 1.6308739169876987e-04 0.0000000000000000e+00  2.0942144441387392e-01 -6.1782383850379568e-04 0.0000000000000000e+00  2.1066950479774812e-01 -5.1935830350099846e-04 0.0000000000000000e+00  2.0905589026699670e-01 -1.4097080649127032e-03 0.0000000000000000e+00  2.0792553295046157e-01 -1.4056557269555995e-03 0.0000000000000000e+00  2.0754551936475163e-01 -2.3396272061985569e-03 0.0000000000000000e+00  2.0871434380273499e-01 -2.3818391056902098e-03 0.0000000000000000e+00  2.0711498212686905e-01 -3.4187724037708948e-03 0.0000000000000000e+00  2.0614924285188965e-01 -3.2198742703557319e-03 0.0000000000000000e+00  2.0565596975232217e-01 -4.4537934024061919