<?xml version="1.0"?>
<VTKFile type="UnstructuredGrid"  version="0.1"  >
<UnstructuredGrid>
<Piece  NumberOfPoints="1232" NumberOfCells="2323">
<Points>
<DataArray  type="Float64"  NumberOfComponents="3"  format="ascii">40 0 0  20 0 0  20 10.77714799557023 0  23.24942335879077 8.091871752974312 0  23.24942335879077 12.5 0  40 12.5 0  39.5 0 0  39 0 0  38.5 0 0  38 0 0  37.5 0 0  37 0 0  36.5 0 0  36 0 0  35.5 0 0  35 0 0  34.5 0 0  34 0 0  33.5 0 0  33 0 0  32.5 0 0  32 0 0  31.5 0 0  31 0 0  30.5 0 0  30 0 0  29.5 0 0  29 0 0  28.5 0 0  28 0 0  27.5 0 0  27 0 0  26.5 0 0  26 0 0  25.5 0 0  25 0 0  24.5 0 0  24 0 0  23.5 0 0  23 0 0  22.5 0 0  22 0 0  21.5 0 0  21 0 0  20.5 0 0  20 0.4898703634350106 0  20 0.9797407268700212 0  20 1.469611090305032 0  20 1.959481453740042 0  20 2.449351817175053 0  20 2.939222180610064 0  20 3.429092544045074 0  20 3.918962907480085 0  20 4.408833270915095 0  20 4.898703634350106 0  20 5.388573997785117 0  20 5.878444361220128 0  20 6.368314724655138 0  20 6.858185088090148 0  20 7.348055451525159 0  20 7.83792581496017 0  20 8.327796178395181 0  20 8.81766654183019 0  20 9.307536905265202 0  20 9.797407268700212 0  20 10.28727763213522 0  20.36104703986564 10.47878396861513 0  20.72209407973128 10.18041994166003 0  21.08314111959692 9.882055914704926 0  21.44418815946257 9.583691887749824 0  21.80523519932821 9.285327860794721 0  22.16628223919385 8.986963833839619 0  22.52732927905949 8.688599806884516 0  22.88837631892513 8.390235779929414 0  23.24942335879077 8.581663780421611 0  23.24942335879077 9.07145580786891 0  23.24942335879077 9.561247835316207 0  23.24942335879077 10.05103986276351 0  23.24942335879077 10.54083189021081 0  23.24942335879077 11.0306239176581 0  23.24942335879077 11.5204159451054 0  23.24942335879077 12.0102079725527 0  23.74208737764987 12.5 0  24.23475139650896 12.5 0  24.72741541536806 12.5 0  25.22007943422715 12.5 0  25.71274345308625 12.5 0  26.20540747194534 12.5 0  26.69807149080444 12.5 0  27.19073550966353 12.5 0  27.68339952852263 12.5 0  28.17606354738172 12.5 0  28.66872756624081 12.5 0  29.16139158509991 12.5 0  29.65405560395901 12.5 0  30.1467196228181 12.5 0  30.6393836416772 12.5 0  31.13204766053629 12.5 0  31.62471167939539 12.5 0  32.11737569825448 12.5 0  32.61003971711358 12.5 0  33.10270373597267 12.5 0  33.59536775483176 12.5 0  34.08803177369086 12.5 0  34.58069579254995 12.5 0  35.07335981140905 12.5 0  35.56602383026814 12.5 0  36.05868784912724 12.5 0  36.55135186798633 12.5 0  37.04401588684543 12.5 0  37.53667990570452 12.5 0  38.02934392456362 12.5 0  38.52200794342271 12.5 0  39.01467196228181 12.5 0  39.5073359811409 12.5 0  40 12 0  40 11.5 0  40 11 0  40 10.5 0  40 10 0  40 9.5 0  40 9 0  40 8.5 0  40 8 0  40 7.5 0  40 7 0  40 6.5 0  40 6 0  40 5.5 0  40 5 0  40 4.5 0  40 4 0  40 3.5 0  40 3 0  40 2.5 0  40 2 0  40 1.5 0  40 1 0  40 0.5 0  33.34095895684369 12.03258048033722 0  30.82944169534385 12.06397850035196 0  29.24823005792961 0.4420792150048962 0  32.24995917057957 0.4221821006222957 0  39.56698729810778 6.25 0  28.42239555681127 12.07334044413749 0  34.71375926909646 0.4767661023150387 0  26.75 0.4330127018922196 0  35.31351383075479 12.09577093359085 0  24.78016016464113 0.4154145628552959 0  23.66126386551027 8.337323898783461 0  23.65017284721251 7.840696342162826 0  24.06985356046926 8.098119746726404 0  24.05684363614279 7.601955881116649 0  24.47533162129312 7.85940945992863 0  24.48212020450101 7.389884100675706 0  24.88486249993836 7.634690371678982 0  39.50096280073448 4.250154526261473 0  24.87180361818583 7.155101795592662 0  25.29870356216106 7.399762779036021 0  39.64048248196447 8.31109795536111 0  25.2851054999572 6.910097809969669 0  25.72255560462593 7.159279523887895 0  25.71960520732402 6.671130701170536 0  26.14428788798234 6.919374125821022 0  25.26770114790028 6.425805072361567 0  26.1404215891521 6.428111355081565 0  26.55977968047564 6.670832647837114 0  26.55888494875127 6.185017301362374 0  26.97927071518529 6.427564137470976 0  20.46918010072775 3.76848046558608 0  26.97943542224355 5.941805868202194 0  27.40061346209337 6.18476115392719 0  27.39699540678413 6.675204506259688 0  27.81963860887072 6.43284326398305 0  27.82219463783468 5.942141540726384 0  28.24433977361132 6.185739888730483 0  28.24173295080187 6.677506195397069 0  28.66699152758797 6.430135317078047 0  28.66755493419589 5.940744156115421 0  29.09111454421227 6.185320215478069 0  29.09121752344575 5.695557491665188 0  29.51559078657864 5.940799193183432 0  29.51507028877171 6.430736882014081 0  29.9399715890753 6.186314814492271 0  29.93942066301021 6.67675854786708 0  30.36484956600029 6.432090653138473 0  30.36495433066105 5.941773430626411 0  30.79025157553459 6.187715655711088 0  30.78966469169934 6.678132169907455 0  31.21568179078187 6.432727231201609 0  31.21333189474113 5.940372507391196 0  31.64194603894993 6.18814842465774 0  31.64112944478539 6.678953558915226 0  32.06831022117519 6.43378718770317 0  32.06692058065651 5.940866613385205 0  32.49586500234302 6.189157065536323 0  32.49431000779854 6.680197749412739 0  32.92336099393539 6.436516659193152 0  32.92223881584542 5.941951108547289 0  33.35144743938223 6.190729925690533 0  33.3508484498788 6.684900981941969 0  33.77941897640162 6.438832113346012 0  33.77868056582349 5.942615485046784 0  36.73421625012614 0.4480734530775861 0  33.77845516476437 6.93316449854957 0  34.2071895008331 6.687097919665048 0  25.71437209827699 7.664491355042909 0  34.20623133132695 7.181593533632268 0  26.55784204279942 5.698969788547566 0  23.25403769541707 0.4583940011659662 0  33.77576575924603 7.424462161983518 0  20.45188523771949 5.089619858749429 0  39.59318954484803 9.687852237967782 0  30.70920253441125 0.4485377535577904 0  36.76513275350303 12.08233507804457 0  34.63524741647342 6.935220491771808 0  34.63421348481391 7.4300600846747 0  24.0076384982681 7.11805735731193 0  26.91199175158984 12.08662165430797 0  35.06346213637066 7.183498026700907 0  35.06399536277982 6.687673517374721 0  35.06238220943749 7.678599149976607 0  39.50957057633502 2.767151230000954 0  35.49183313902994 7.431935626987945 0  35.49065640157553 7.927212931758731 0  35.06125297206685 8.173724891199676 0  25.46611764792227 12.07345032577576 0  35.48933622060383 8.422355851873967 0  23.6601367490086 9.814369625392647 0  35.06003562303795 8.668812178309944 0  20.48789791602166 2.218522312999427 0  35.92034922239306 7.680530063473486 0  20.39851983526019 6.619639659721071 0  35.48798416557712 8.917305599241395 0  35.05895414297891 9.1636218370334 0  22.81486968070489 7.916586558398301 0  35.48670025378622 9.412095827557978 0  35.91570686559141 9.165874668996167 0  38.27567593399317 12.07334044413749 0  38.24997113582783 0.4232272764220921 0  35.057908222427 9.658438329224195 0  34.63023116603551 9.409953092594698 0  35.91447202639956 9.660676738146574 0  36.34375493511921 9.414357919687092 0  21.7948877469777 0.4936345322601658 0  24.46944023081491 8.353934843844998 0  34.62918990025867 9.904433091607627 0  34.20161043507566 9.65603742095872 0  36.34234239903833 9.909318801183408 0  36.77191527010817 9.662961796725568 0  36.77333606101321 9.167507070453921 0  37.20233612446334 9.416611492926833 0  37.20353018352019 8.920185499668953 0  37.20128237871638 9.913691177069733 0  20.42412155552251 8.086170077826509 0  23.67333879290627 10.78562121286639 0  29.38019831529194 12.07309319521564 0  27.78230838908937 0.4814580031373072 0  25.76582305200722 0.4506506838631799 0  39.59277706603214 10.74980688167105 0  39.56698729810778 7.25 0  33.25 0.4330127018922196 0  35.749999916539 0.4226615676907874 0  39.56698729810778 5.25 0  39.50555941788816 1.74853571829492 0  32.35872797715884 12.07705479759498 0  34.33436378312041 12.07334044413749 0  29.51430912713893 6.921156270517908 0  29.51601841557476 5.450466887533573 0  29.09087811100392 5.204958177160387 0  29.51632327471413 4.95950444505041 0  29.09034175631867 4.713636274157174 0  29.51654826836073 4.467547075747864 0  29.08976113499309 4.221287030227938 0  29.51677893666539 3.9748196190867 0  29.08940803764189 3.728861553022858 0  29.51751050706631 3.483277317607798 0  29.94470833444304 3.728667495270156 0  28.66254483522495 3.975144448158017 0  28.66184511103278 3.48294664050069 0  28.23646752805811 3.729060801209153 0  28.23498765000186 3.236164934443629 0  27.81128923532959 3.483741419410386 0  29.94586610339052 3.235734168543149 0  30.37364851056366 3.481944260884475 0  27.80831072758644 2.989661116818386 0  27.38313085803636 3.237507395791322 0  30.37362801032019 2.987263505234272 0  30.80277944616665 3.234577595381393 0  30.80126819030832 2.739196785632062 0  31.23189133626579 2.987229463603242 0  31.23035457130015 3.480682332436078 0  31.6626684578385 3.232975255790538 0  28.23698409288362 2.743151118310931 0  27.38118276355349 2.743206389288678 0  26.95376147205361 2.990297749666741 0  29.94664461689521 2.742743635410739 0  31.66127237742471 2.738905237747619 0  32.09197745308742 2.98771656771392 0  32.09037894628287 3.478277103631265 0  32.52280397165823 3.233423707310677 0  32.52207766772513 2.739402043913786 0  32.95239100763383 2.988393779744836 0  32.95050474139533 3.479279158233808 0  33.38338154827492 3.234765624217869 0  33.38332950110336 2.740527519802532 0  33.81333545713051 2.990080344191673 0  33.81362144595433 3.484743116364151 0  34.24334371626041 3.239771016761144 0  34.24374024145834 3.734180485254563 0  34.67335291648696 3.489278194202133 0  34.67135415491846 3.979357625434018 0  35.10462928080734 3.735442675051025 0  35.10457993530722 3.241378207802002 0  35.53481514001633 3.491161441302951 0  35.53510534089137 3.985930868755486 0  35.96519265539644 3.741174401466571 0  35.96562767437683 4.235827037778789 0  36.39581384630477 3.991321296683369 0  36.39426395119635 4.480650805804805 0  36.39656531929576 3.494038318927683 0  36.827583187518 3.74420553141145 0  36.82884099673642 3.245964323972684 0  37.25983019801848 3.49
[...]
<PointData  Vectors="u"> 
<DataArray  type="Float64"  Name="u"  NumberOfComponents="3" format="ascii">2.4846181569508388e-01 2.0518722127149891e-02 0.0000000000000000e+00  2.7583451268805986e-01 -9.1060989248985827e-02 0.0000000000000000e+00  4.6723881917541059e-02 -1.5083783562440078e-01 0.0000000000000000e+00  1.7850610362395958e-01 -3.3837614277817611e-02 0.0000000000000000e+00  2.0351649324947388e-01 0.0000000000000000e+00 0.0000000000000000e+00  2.2182593874862119e-01 0.0000000000000000e+00 0.0000000000000000e+00  2.4795628682135501e-01 1.9377163518109107e-02 0.0000000000000000e+00  2.4744266235657228e-01 1.8251369047835198e-02 0.0000000000000000e+00  2.4692743715523632e-01 1.7164069956948757e-02 0.0000000000000000e+00  2.4642855951138318e-01 1.6130874875820555e-02 0.0000000000000000e+00  2.4596258470814955e-01 1.5153572323483135e-02 0.0000000000000000e+00  2.4554215588524339e-01 1.4235225311836658e-02 0.0000000000000000e+00  2.4518758338154567e-01 1.3362832886415422e-02 0.0000000000000000e+00  2.4490210323268302e-01 1.2536371710047199e-02 0.0000000000000000e+00  2.4470683116901717e-01 1.1740298017314016e-02 0.0000000000000000e+00  2.4460332257228909e-01 1.0957863137984448e-02 0.0000000000000000e+00  2.4460757542357289e-01 1.0170111663224127e-02 0.0000000000000000e+00  2.4472566527394976e-01 9.4018393102232433e-03 0.0000000000000000e+00  2.4495336362786321e-01 8.5758436335803510e-03 0.0000000000000000e+00  2.4531500128654515e-01 7.7092282429419619e-03 0.0000000000000000e+00  2.4580260942229484e-01 6.7747710971450877e-03 0.0000000000000000e+00  2.4643948709876931e-01 5.7623362389268009e-03 0.0000000000000000e+00  2.4721429808639736e-01 4.6311138238196237e-03 0.0000000000000000e+00  2.4812516357245426e-01 3.3659012182786696e-03 0.0000000000000000e+00  2.4919444791578899e-01 1.9479287034780996e-03 0.0000000000000000e+00  2.5040714128224506e-01 3.3779881471851178e-04 0.0000000000000000e+00  2.5177511669488312e-01 -1.4679341131864216e-03 0.0000000000000000e+00  2.5326905631429453e-01 -3.5395968759904008e-03 0.0000000000000000e+00  2.5488516919871695e-01 -5.8838451703152701e-03 0.0000000000000000e+00  2.5667523308763190e-01 -8.5014021830300043e-03 0.0000000000000000e+00  2.5850655725352178e-01 -1.1474999808056758e-02 0.0000000000000000e+00  2.6043548248330517e-01 -1.4798620644961112e-02 0.0000000000000000e+00  2.6241447280164248e-01 -1.8515267041413704e-02 0.0000000000000000e+00  2.6440928670927138e-01 -2.2609647792917673e-02 0.0000000000000000e+00  2.6636692171846482e-01 -2.7119400232828515e-02 0.0000000000000000e+00  2.6825728593812986e-01 -3.2010136394330355e-02 0.0000000000000000e+00  2.7003464815846884e-01 -3.7292889062614014e-02 0.0000000000000000e+00  2.7161205650890863e-01 -4.2907859902514424e-02 0.0000000000000000e+00  2.7298181431943253e-01 -4.8811346483000159e-02 0.0000000000000000e+00  2.7409007595197654e-01 -5.4912793502050729e-02 0.0000000000000000e+00  2.7490712425729730e-01 -6.1119446294497108e-02 0.0000000000000000e+00  2.7545827169423781e-01 -6.7402254988272098e-02 0.0000000000000000e+00  2.7576929574422870e-01 -7.3541393206647487e-02 0.0000000000000000e+00  2.7586934023759968e-01 -7.9565656746090493e-02 0.0000000000000000e+00  2.7585575082403641e-01 -8.5379525455917413e-02 0.0000000000000000e+00  2.7028757488439031e-01 -9.1039671350602203e-02 0.0000000000000000e+00  2.6485358908563128e-01 -9.1037925546820761e-02 0.0000000000000000e+00  2.5959495742284205e-01 -9.1130936937205753e-02 0.0000000000000000e+00  2.5450785669975518e-01 -9.1408859752249605e-02 0.0000000000000000e+00  2.4955398139604673e-01 -9.1954741059221468e-02 0.0000000000000000e+00  2.4465477885604900e-01 -9.2842682566996043e-02 0.0000000000000000e+00  2.3971844283595137e-01 -9.4134728969188466e-02 0.0000000000000000e+00  2.3460483469707466e-01 -9.5907810769265592e-02 0.0000000000000000e+00  2.2928290132867515e-01 -9.8267835435842776e-02 0.0000000000000000e+00  2.2337147617797543e-01 -1.0132940541787765e-01 0.0000000000000000e+00  2.1675114671765786e-01 -1.0486449339758157e-01 0.0000000000000000e+00  2.0922441716269480e-01 -1.0917911596855204e-01 0.0000000000000000e+00  2.0040107713813207e-01 -1.1414515363227581e-01 0.0000000000000000e+00  1.9000251356916595e-01 -1.1964350220761794e-01 0.0000000000000000e+00  1.7772163579042100e-01 -1.2534005448423496e-01 0.0000000000000000e+00  1.6353917265785528e-01 -1.3098974734031027e-01 0.0000000000000000e+00  1.4752322564238898e-01 -1.3622638444986704e-01 0.0000000000000000e+00  1.2992816744175112e-01 -1.4078312514750851e-01 0.0000000000000000e+00  1.1106391506250511e-01 -1.4453101208273830e-01 0.0000000000000000e+00  9.0860411870334279e-02 -1.4755685694897228e-01 0.0000000000000000e+00  6.9439373119058984e-02 -1.4975048262926299e-01 0.0000000000000000e+00  6.0982452449199948e-02 -1.3445897500043474e-01 0.0000000000000000e+00  7.5057328214880217e-02 -1.1999155761866961e-01 0.0000000000000000e+00  8.8783695327982498e-02 -1.0707826227150474e-01 0.0000000000000000e+00  1.0191221059731791e-01 -9.5196739114304360e-02 0.0000000000000000e+00  1.1480323961125280e-01 -8.4207962961422370e-02 0.0000000000000000e+00  1.2746828075105468e-01 -7.3674144283068468e-02 0.0000000000000000e+00  1.4041535156280344e-01 -6.3093938431379629e-02 0.0000000000000000e+00  1.5487246477205030e-01 -5.1766176220314229e-02 0.0000000000000000e+00  1.9115635466006531e-01 -2.4481149136126909e-02 0.0000000000000000e+00  1.9589406002404308e-01 -1.9273382170965594e-02 0.0000000000000000e+00  1.9873311393918133e-01 -1.5550366775854833e-02 0.0000000000000000e+00  2.0051810294871733e-01 -1.2474009601298056e-02 0.0000000000000000e+00  2.0172499381218276e-01 -9.7234692951620218e-03 0.0000000000000000e+00  2.0254592101514740e-01 -7.1627007337311090e-03 0.0000000000000000e+00  2.0308319472292766e-01 -4.7155891918584866e-03 0.0000000000000000e+00  2.0339302223392383e-01 -2.3382369184262266e-03 0.0000000000000000e+00  2.0252595738641085e-01 0.0000000000000000e+00 0.0000000000000000e+00  2.0154015494971364e-01 0.0000000000000000e+00 0.0000000000000000e+00  2.0063156947460917e-01 0.0000000000000000e+00 0.0000000000000000e+00  1.9986161596462679e-01 0.0000000000000000e+00 0.0000000000000000e+00  1.9930144716075057e-01 0.0000000000000000e+00 0.0000000000000000e+00  1.9897237565991061e-01 0.0000000000000000e+00 0.0000000000000000e+00  1.9887549412636191e-01 0.0000000000000000e+00 0.0000000000000000e+00  1.9898977838654486e-01 0.0000000000000000e+00 0.0000000000000000e+00  1.9930872523707063e-01 0.0000000000000000e+00 0.0000000000000000e+00  1.9980600688113237e-01 0.0000000000000000e+00 0.0000000000000000e+00  2.0043792475937050e-01 0.0000000000000000e+00 0.0000000000000000e+00  2.0118844801189825e-01 0.0000000000000000e+00 0.0000000000000000e+00  2.0202315989226630e-01 0.0000000000000000e+00 0.0000000000000000e+00  2.0293559588130844e-01 0.0000000000000000e+00 0.0000000000000000e+00  2.0389148520787131e-01 0.0000000000000000e+00 0.0000000000000000e+00  2.0487519351952857e-01 0.0000000000000000e+00 0.0000000000000000e+00  2.0588321099964280e-01 0.0000000000000000e+00 0.0000000000000000e+00  2.0690181401702015e-01 0.0000000000000000e+00 0.0000000000000000e+00  2.0791739918237170e-01 0.0000000000000000e+00 0.0000000000000000e+00  2.0892401075549111e-01 0.0000000000000000e+00 0.0000000000000000e+00  2.0991992917069394e-01 0.0000000000000000e+00 0.0000000000000000e+00  2.1090098177706967e-01 0.0000000000000000e+00 0.0000000000000000e+00  2.1186340325400541e-01 0.0000000000000000e+00 0.0000000000000000e+00  2.1280355098135273e-01 0.0000000000000000e+00 0.0000000000000000e+00  2.1372700674639319e-01 0.0000000000000000e+00 0.0000000000000000e+00  2.1463430055370078e-01 0.0000000000000000e+00 0.0000000000000000e+00  2.1552530351562330e-01 0.0000000000000000e+00 0.0000000000000000e+00  2.1640390779845106e-01 0.0000000000000000e+00 0.0000000000000000e+00  2.1727878053231153e-01 0.0000000000000000e+00 0.0000000000000000e+00  2.1815478824805418e-01 0.0000000000000000e+00 0.0000000000000000e+00  2.1903899237424057e-01 0.0000000000000000e+00 0.0000000000000000e+00  2.1994239660341797e-01 0.0000000000000000e+00 0.0000000000000000e+00  2.2086773291491121e-01 0.0000000000000000e+00 0.0000000000000000e+00  2.2191309694590663e-01 1.4758213760250546e-03 0.0000000000000000e+00  2.2212625615734211e-01 2.9388362790374414e-03 0.0000000000000000e+00  2.2248515787634829e-01 4.3807717086953579e-03 0.0000000000000000e+00  2.2298390935508114e-01 5.7987788238624584e-03 0.0000000000000000e+00  2.2361378187852479e-01 7.1837802135071268e-03 0.0000000000000000e+00  2.2436968563892978e-01 8.5159365167731104e-03 0.0000000000000000e+00  2.2525862045497452e-01 9.8081479177560601e-03 0.0000000000000000e+00  2.2624622494101482e-01 1.1032509823076226e-02 0.0000000000000000e+00  2.2734548365434054e-01 1.2191327371732371e-02 0.0000000000000000e+00  2.2853164275947210e-01 1.3269194514214266e-02 0.0000000000000000e+00  2.2979879111774934e-01 1.4272229912056884e-02 0.0000000000000000e+00  2.3113084305448450e-01 1.5192168766378834e-02 0.0000000000000000e+00  2.3251492141205293e-01 1.6024614096817807e-02 0.0000000000000000e+00  2.3393934588021070e-01 1.6769443430776958e-02 0.0000000000000000e+00  2.3538876471898829e-01 1.7424559113275489e-02 0.0000000000000000e+00  2.3684159749302355e-01 1.7992998664226358e-02 0.0000000000000000e+00  2.3828640400972892e-01 1.8479181543784955e-02 0.0000000000000000e+00  2.3971059185372889e-01 1.8888577495625954e-02 0.0000000000000000e+00  2.4109912137218367e-01 1.9230017159919996e-02 0.0000000000000000e+00  2.4244736620732107e-01 1.9510883910148179e-02 0.0000000000000000e+00  2.4374087345592005e-01 1.9746385980434544e-02 0.0000000000000000e+00  2.4498116249951099e-01 1.9949316326485896e-02 0.0000000000000000e+00  2.4616894477537629e-01 2.0139003624445304e-02 0.0000000000000000e+00  2.4732490054004647e-01 2.0324151822595476e-02 0.0000000000000000e+00  2.0948311276286327e-01 5.1280482655630425e-04 0.0000000000000000e+00  2.0432455792642112e-01 1.4107693036227530e-04 0.0000000000000000e+00  2.5054323464120720e-01 -1.9929103240745333e-03 0.0000000000000000e+00  2.4512211631059660e-01 6.4829108938039681e-03 0.0000000000000000e+00  2.3117189166949967e-01 1.4499563087162014e-02 0.0000000000000000e+00  2.0013520792324274e-01 -5.3414400081655859e-04 0.0000000000000000e+00  2.4373149476277023e-01 1.0511603603745989e-02 0.0000000000000000e+00  2.5817657715489084e-01 -1.5972156100443651e-02 0.0000000000000000e+00  2.1331229924718068e-01 5.9595711321048768e-04 0.0000000000000000e+00  2.6481485111674152e-01 -3.3730972590951210e-02 0.0000000000000000e+00  1.8589655691199980e-01 -2.7903054931704793e-02 0.0000000000000000e+00  1.8641604806772188e-01 -2.8738687778996196e-02 0.0000000000000000e+00  1.8915117243079138e-01 -2.4640298280698216e-02 0.0000000000000000e+00  1.9194711945046314e-01 -2.5404275050670902e-02 0.0000000000000000e+00  1.9287404484747292e-01 -2.1732790105196194e-02 0.0000000000000000e+00  1.9626666133980203e-01 -2.2275200023992262e-02 0.0000000000000000e+00  1.9637344984531063e-01 -1.9083063676444228e-02 0.0000000000000000e+00  2.3695007369357876e-01 1.6898809680638945e-02 0.0000000000000000e+00  2.0000393653628304e-01 -1.9756886665507168e-02 0.0000000000000000e+00  1.9971352095078868e-01 -1.6623504029118101e-02 0.0000000000000000e+00  2.2601789492669483e-01 1.0740316100714822e-02 0.0000000000000000e+00  2.0348003739476311e-01 -1.7259817391339808e-02 0.0000000000000000e+00  2.0287090455573298e-01 -1.4283210622898867e-02 0.0000000000000000e+00  2.0661488203313663e-01 -1.4780547753114213e-02 0.0000000000000000e+00  2.0578741849027887e-01 -1.2114205033862815e-02 0.0000000000000000e+00  2.0792200618944581e-01 -1.8212750513148329e-02 0.0000000000000000e+00  2.0948363882989607e-01 -1.2549040813447709e-02 0.0000000000000000e+00  2.0855665839316692e-01 -1.0119853690367036e-02 0.0000000000000000e+00  2.1214326757074656e-01 -1.0465161201952193e-02 0.0000000000000000e+00  2.1113387144215437e-01 -8.2236654968353452e-03 0.0000000000000000e+00  2.3688509121540458e-01 -8.9858842437415834e-02 0.0000000000000000e+00  2.1463580855456646e-01 -8.4954280276333342e-03 0.0000000000000000e+00  2.1356735082344583e-01 -6.4358937424938336e-03 0.0000000000000000e+00  2.1037933342155002e-01 -6.3232202411997000e-03 0.0000000000000000e+00  2.1272297004671628e-01 -4.6909485824753617e-03 0.0000000000000000e+00  2.1587125243477664e-01 -4.7600706979085850e-03 0.0000000000000000e+00  2.1499522306885704e-01 -3.1578751813099788e-03 0.0000000000000000e+00  2.1212008110586447e-01 -3.1898026222832829e-03 0.0000000000000000e+00  2.1431115457327921e-01 -1.7950897001260155e-03 0.0000000000000000e+00  2.1715029396623306e-01 -1.7337135059951234e-03 0.0000000000000000e+00  2.1640358495642176e-01 -5.0005324430652724e-04 0.0000000000000000e+00  2.1920978257565177e-01 -4.0789947740114556e-04 0.0000000000000000e+00  2.1841221005596892e-01 7.0373752654771630e-04 0.0000000000000000e+00  2.1580779164295644e-01 5.3978133858869194e-04 0.0000000000000000e+00  2.1776117726747510e-01 1.6332785231128338e-03 0.0000000000000000e+00  2.1534066566867122e-01 1.4103030145818905e-03 0.0000000000000000e+00  2.1723695037153448e-01 2.4055165848102821e-03 0.0000000000000000e+00  2.1964394691326919e-01 2.6473699043890729e-03 0.0000000000000000e+00  2.1907142213114419e-01 3.3302547696207317e-03 0.0000000000000000e+00  2.1682129728607441e-01 3.0391028376764266e-03 0.0000000000000000e+00  2.1861097708959965e-01 3.8869286044940880e-03 0.0000000000000000e+00  2.2085328976401811e-01 4.1876857273550989e-03 0.0000000000000000e+00  2.2034309985872425e-01 4.6789749864311180e-03 0.0000000000000000e+00  2.1823945710878473e-01 4.3320838182157725e-03 0.0000000000000000e+00  2.1993246336342914e-01 5.0676572867505779e-03 0.0000000000000000e+00  2.2202867031309664e-01 5.4211347359166950e-03 0.0000000000000000e+00  2.2157490560933396e-01 5.7628211153657122e-03 0.0000000000000000e+00  2.1960047613426212e-01 5.3686958451287931e-03 0.0000000000000000e+00  2.2120477984295997e-01 6.0263135506594939e-03 0.0000000000000000e+00  2.2317593943601419e-01 6.4246678793443649e-03 0.0000000000000000e+00  2.2277262135864578e-01 6.6605186409721007e-03 0.0000000000000000e+00  2.2090406208112812e-01 6.2235773715148424e-03 0.0000000000000000e+00  2.2244234767718724e-01 6.8394175937384087e-03 0.0000000000000000e+00  2.2430468483940968e-01 7.2791005705639695e-03 0.0000000000000000e+00  2.4450095729735050e-01 1.3644178581070341e-02 0.0000000000000000e+00  2.2067040984590836e-01 6.3659834887843372e-03 0.0000000000000000e+00  2.2217639398511699e-01 6.9718671699016237e-03 0.0000000000000000e+00  1.9976674646351616e-01 -1.4008968315273668e-02 0.0000000000000000e+00  2.2049676172017066e-01 6.4625894404311077e-03 0.0000000000000000e+00  2.1601457508281535e-01 -1.0932063489511418e-02 0.0000000000000000e+00  2.6823982613963010e-01 -5.1396391177413236e-02 0.0000000000000000e+00  2.1900795279100030e-01 5.8653247596416654e-03 0.0000000000000000e+00  2.2205601658971980e-01 -9.5915088528538806e-02 0.0000000000000000e+00  2.2330730502303120e-01 7.4376627639542786e-03 0.0000000000000000e+00  2.4730709479575688e-01 2.9287058733089861e-03 0.0000000000000000e+00  2.1596188790599499e-01 7.3533473293679343e-04 0.0000000000000000e+00  2.2197072749438301e-01 7.0673690679052808e-03 0.0000000000000000e+00  2.2037853185131806e-01 6.5217701561373857e-03 0.0000000000000000e+00  1.9771612636230437e-01 -2.7592406567643044e-02 0.0000000000000000e+00  1.9888522198428976e-01 -1.1752563365556633e-03 0.0000000000000000e+00  2.2181929423445279e-01 7.1333145396086850e-03 0.0000000000000000e+00  2.2342391979798867e-01 7.6857400655197155e-03 0.0000000000000000e+00  2.2031149697969790e-01 6.5505356300475303e-03 0.0000000000000000e+00  2.4120717123389529e-01 1.8106541653567343e-02 0.0000000000000000e+00  2.2171816041255413e-01 7.1764532925018172e-03 0.0000000000000000e+00  2.2029193843688705e-01 6.5550480416417282e-03 0.0000000000000000e+00  2.1891283628645367e-01 5.9409735778935260e-03 0.0000000000000000e+00  1.9948561088968861e-01 -1.9127100302719121e-03 0.0000000000000000e+00  2.1897758144141499e-01 5.9072038640296688e-03 0.0000000000000000e+00  1.9869751089872889e-01 -1.4980668686536646e-02 0.0000000000000000e+00  2.1763579007745718e-01 5.3084969546698668e-03 0.0000000000000000e+00  2.5208207148834488e-01 -8.6358283350773543e-02 0.0000000000000000e+00  2.2166423385031844e-01 7.2028059912328107e-03 0.0000000000000000e+00  1.9689660941430320e-01 -1.0811010211148518e-01 0.0000000000000000e+00  2.1778700859813838e-01 5.2367695821276721e-03 0.0000000000000000e+00  2.1649211334057153e-01 4.6574203162926741e-03 0.0000000000000000e+00  1.7720600686999810e-01 -5.0508567798664000e-02 0.0000000000000000e+00  2.1673029281316170e-01 4.5473779093716492e-03 0.0000000000000000e+00  2.1797815219296862e-01 5.1407169966109986e-03 0.0000000000000000e+00  2.1864691911272097e-01 9.2712923279159032e-04 0.0000000000000000e+00  2.4577915861775246e-01 1.6474905813280778e-02 0.0000000000000000e+00  2.1548961371517594e-01 3.9907105092280961e-03 0.0000000000000000e+00  2.1520107569525010e-01 4.1072831118261583e-03 0.0000000000000000e+00  2.1700694936674986e-01 4.4103765869718901e-03 0.0000000000000000e+00  2.1820987519508428e-01 5.0234847042212177e-03 0.0000000000000000e+00  2.6978491177728581e-01 -6.9803812841837579e-02 0.0000000000000000e+00  1.9170718928795907e-01 -2.1208560131193249e-02 0.0000000000000000e+00  2.1425790474387138e-01 3.4654838803038308e-03 0.0000000000000000e+00  2.1391581901509946e-01 3.5814630150894449e-03 0.0000000000000000e+00  2.1732209360469057e-01 4.2483701819106641e-03 0.0000000000000000e+00  2.1848163082478986e-01 4.8858051412761574e-03 0.0000000000000000e+00  2.1942539738369693e-01 5.6904608216520377e-03 0.0000000000000000e+00  2.1965829705530882e-01 5.5858234970182349e-03 0.0000000000000000e+00  2.2065464792634804e-01 6.4215918073835350e-03 0.0000000000000000e+00  2.1879321437791927e-01 4.7244623058369760e-03 0.0000000000000000e+00  1.5726970988097658e-01 -1.2034136691971185e-01 0.0000000000000000e+00  2.0126479862820951e-01 -8.9989633721160207e-03 0.0000000000000000e+00  2.0159571096113407e-01 -2.0994277430874057e-04 0.0000000000000000e+00  2.5450535518433187e-01 -9.0906756779114660e-03 0.0000000000000000e+00  2.6132829233039895e-01 -2.4011923190415074e-02 0.0000000000000000e+00  2.2192919462423619e-01 4.7166115064292734e-03 0.0000000000000000e+00  2.2845538951025984e-01 1.2758292986066120e-02 0.0000000000000000e+00  2.4424940879488269e-01 8.2683794058846030e-03 0.0000000000000000e+00  2.4404052597369486e-01 1.2071969258320624e-02 0.0000000000000000e+00  2.3407276688324311e-01 1.5933804316019217e-02 0.0000000000000000e+00  2.4387211215034418e-01 1.8653800315649161e-02 0.0000000000000000e+00  2.0746286249652937e-01 3.6168203032549640e-04 0.0000000000000000e+00  2.1144745587433242e-01 5.5300029690168585e-04 0.0000000000000000e+00  2.1339043560393658e-01 3.4186051837242412e-04 0.0000000000000000e+00  2.2117510299450449e-01 8.2410293739215159e-04 0.0000000000000000e+00  2.2217012966380820e-01 -3.6807429136575094e-04 0.0000000000000000e+00  2.2406121421784372e-01 8.9429243130022045e-04 0.0000000000000000e+00  2.2524240574806337e-01 -3.8321174887799082e-04 0.0000000000000000e+00  2.2703460903803033e-01 9.1201587811086230e-04 0.0000000000000000e+00  2.2838774397332123e-01 -4.5237110095516135e-04 0.0000000000000000e+00  2.3005698171776640e-01 8.7699043716704661e-04 0.0000000000000000e+00  2.3156161298897052e-01 -5.7183851647944815e-04 0.0000000000000000e+00  2.3307973033762880e-01 7.9256436884327195e-04 0.0000000000000000e+00  2.3161491175577711e-01 2.0911766705412724e-03 0.0000000000000000e+00  2.2992659445929040e-01 -2.0656818001309322e-03 0.0000000000000000e+00  2.3325078125012849e-01 -2.2745763241024406e-03 0.0000000000000000e+00  2.3166198495163559e-01 -3.9530583651681992e-03 0.0000000000000000e+00  2.3513744521149813e-01 -4.2562580982599390e-03 0.0000000000000000e+00  2.3359374621834744e-01 -6.1448478875149