<?xml version="1.0"?>
<VTKFile type="UnstructuredGrid"  version="0.1"  >
<UnstructuredGrid>
<Piece  NumberOfPoints="1193" NumberOfCells="2179">
<Points>
<DataArray  type="Float64"  NumberOfComponents="3"  format="ascii">0 0 0  7.27830953785794 0 0  7.27830953785794 4.924591431463994 0  5 3.39904712025596 0  5 6.943109927682373 0  17.33568913284272 9.009955063081327 0  17.14035253532352 3.861415939571958 0  29.47604166816625 5.556890072317627 0  29.47604166816625 9.100952879744039 0  27.19773213030831 7.575408568536006 0  27.19773213030831 12.5 0  0 12.5 0  0.485220635857196 0 0  0.970441271714392 0 0  1.455661907571588 0 0  1.940882543428784 0 0  2.42610317928598 0 0  2.911323815143176 0 0  3.396544451000372 0 0  3.881765086857568 0 0  4.366985722714764 0 0  4.85220635857196 0 0  5.337426994429156 0 0  5.822647630286352 0 0  6.307868266143548 0 0  6.793088902000743 0 0  7.27830953785794 0.4924591431463994 0  7.27830953785794 0.9849182862927988 0  7.27830953785794 1.477377429439198 0  7.27830953785794 1.969836572585598 0  7.27830953785794 2.462295715731997 0  7.27830953785794 2.954754858878396 0  7.27830953785794 3.447214002024796 0  7.27830953785794 3.939673145171195 0  7.27830953785794 4.432132288317595 0  6.898591281548283 4.670334046262655 0  6.518873025238626 4.416076661061316 0  6.13915476892897 4.161819275859977 0  5.759436512619313 3.907561890658638 0  5.379718256309657 3.653304505457299 0  5 3.842054971184262 0  5 4.285062822112564 0  5 4.728070673040865 0  5 5.171078523969166 0  5 5.614086374897468 0  5 6.05709422582577 0  5 6.500102076754072 0  5.474449582032412 7.022603971351564 0  5.948899164064825 7.102098015020754 0  6.423348746097237 7.181592058689945 0  6.89779832812965 7.261086102359135 0  7.372247910162063 7.340580146028326 0  7.846697492194474 7.420074189697516 0  8.321147074226888 7.499568233366707 0  8.795596656259299 7.579062277035898 0  9.270046238291712 7.658556320705088 0  9.744495820324126 7.738050364374279 0  10.21894540235654 7.817544408043469 0  10.69339498438895 7.89703845171266 0  11.16784456642136 7.97653249538185 0  11.64229414845378 8.056026539051039 0  12.11674373048619 8.135520582720231 0  12.5911933125186 8.215014626389422 0  13.06564289455101 8.294508670058612 0  13.54009247658342 8.374002713727803 0  14.01454205861584 8.453496757396993 0  14.48899164064825 8.532990801066184 0  14.96344122268066 8.612484844735373 0  15.43789080471307 8.691978888404565 0  15.91234038674549 8.771472932073754 0  16.3867899687779 8.850966975742946 0  16.86123955081031 8.930461019412135 0  17.31793126034098 8.541906051853202 0  17.30017338783923 8.073857040625077 0  17.28241551533749 7.605808029396953 0  17.26465764283574 7.137759018168828 0  17.246899770334 6.669710006940704 0  17.22914189783225 6.201660995712579 0  17.21138402533051 5.733611984484455 0  17.19362615282876 5.26556297325633 0  17.17586828032701 4.797513962028206 0  17.15811040782527 4.329464950800081 0  17.63378010063723 3.929234904881784 0  18.12720766595094 3.997053870191611 0  18.62063523126465 4.064872835501438 0  19.11406279657836 4.132691800811265 0  19.60749036189207 4.200510766121091 0  20.10091792720578 4.268329731430918 0  20.59434549251948 4.336148696740745 0  21.08777305783319 4.403967662050571 0  21.5812006231469 4.471786627360398 0  22.07462818846061 4.539605592670226 0  22.56805575377432 4.607424557980052 0  23.06148331908803 4.675243523289879 0  23.55491088440174 4.743062488599706 0  24.04833844971545 4.810881453909532 0  24.54176601502916 4.878700419219359 0  25.03519358034287 4.946519384529186 0  25.52862114565657 5.014338349839012 0  26.02204871097028 5.082157315148839 0  26.51547627628399 5.149976280458667 0  27.0089038415977 5.217795245768493 0  27.50233140691141 5.28561421107832 0  27.99575897222512 5.353433176388147 0  28.48918653753883 5.421252141697973 0  28.98261410285254 5.4890711070078 0  29.47604166816625 5.999897923245928 0  29.47604166816625 6.44290577417423 0  29.47604166816625 6.885913625102531 0  29.47604166816625 7.328921476030833 0  29.47604166816625 7.771929326959135 0  29.47604166816625 8.214937177887435 0  29.47604166816625 8.657945028815737 0  29.09632341185659 8.846695494542701 0  28.71660515554693 8.592438109341362 0  28.33688689923728 8.338180724140022 0  27.95716864292762 8.083923338938684 0  27.57745038661796 7.829665953737345 0  27.19773213030831 8.067867711682405 0  27.19773213030831 8.560326854828805 0  27.19773213030831 9.052785997975205 0  27.19773213030831 9.545245141121605 0  27.19773213030831 10.037704284268 0  27.19773213030831 10.5301634274144 0  27.19773213030831 11.0226225705608 0  27.19773213030831 11.5150817137072 0  27.19773213030831 12.0075408568536 0  26.70322790975725 12.5 0  26.20872368920619 12.5 0  25.71421946865513 12.5 0  25.21971524810407 12.5 0  24.72521102755301 12.5 0  24.23070680700194 12.5 0  23.73620258645089 12.5 0  23.24169836589983 12.5 0  22.74719414534876 12.5 0  22.25268992479771 12.5 0  21.75818570424665 12.5 0  21.26368148369558 12.5 0  20.76917726314452 12.5 0  20.27467304259346 12.5 0  19.78016882204241 12.5 0  19.28566460149134 12.5 0  18.79116038094028 12.5 0  18.29665616038923 12.5 0  17.80215193983816 12.5 0  17.3076477192871 12.5 0  16.81314349873604 12.5 0  16.31863927818498 12.5 0  15.82413505763392 12.5 0  15.32963083708286 12.5 0  14.8351266165318 12.5 0  14.34062239598074 12.5 0  13.84611817542968 12.5 0  13.35161395487862 12.5 0  12.85710973432756 12.5 0  12.3626055137765 12.5 0  11.86810129322544 12.5 0  11.37359707267438 12.5 0  10.87909285212332 12.5 0  10.38458863157226 12.5 0  9.890084411021203 12.5 0  9.395580190470142 12.5 0  8.901075969919081 12.5 0  8.406571749368023 12.5 0  7.912067528816962 12.5 0  7.417563308265901 12.5 0  6.92305908771484 12.5 0  6.428554867163779 12.5 0  5.934050646612722 12.5 0  5.439546426061661 12.5 0  4.9450422055106 12.5 0  4.450537984959542 12.5 0  3.956033764408481 12.5 0  3.46152954385742 12.5 0  2.967025323306359 12.5 0  2.472521102755298 12.5 0  1.978016882204241 12.5 0  1.48351266165318 12.5 0  0.9890084411021185 12.5 0  0.494504220551061 12.5 0  0 12 0  0 11.5 0  0 11 0  0 10.5 0  0 10 0  0 9.5 0  0 9 0  0 8.5 0  0 8 0  0 7.5 0  0 7 0  0 6.5 0  0 6 0  0 5.5 0  0 5 0  0 4.5 0  0 4 0  0 3.5 0  0 3 0  0 2.5 0  0 2 0  0 1.5 0  0 1 0  0 0.5 0  21.7506262802982 4.951231938472532 0  17.73319664187175 8.760053670394253 0  22.95751614294407 12.00569463439017 0  23.74397864751818 5.201730223562662 0  26.75814946045217 8.844215702898641 0  21.01612963842128 12.08731557196416 0  3.243088917085849 12.0384652820204 0  5.171103930603596 7.37749047346921 0  0.520600316922156 9.241546150053209 0  20.29377212970869 4.704119721675869 0  6.156722184823474 12.08658822687257 0  17.67020118773875 7.33716880015458 0  4.699908027515702 7.286398090701269 0  4.879029351993669 7.730332960009744 0  4.592492926301579 5.85223083409006 0  4.590454932453898 4.506744528420716 0  2.673432901288608 0.4224612575014071 0  7.999356917861633 7.848680201529499 0  24.50209707809954 12.02649582579518 0  0.450210483596619 3.309315800667835 0  9.422459148329315 8.114903771275941 0  4.406974566634901 7.636635431559548 0  4.586711995168429 8.08615234874215 0  0.4310062695508741 5.248535650617007 0  7.673729525751906 12.04506859543673 0  0.4235372602803746 6.73469656087519 0  10.95758829109226 8.381502842054243 0  19.50381067582154 12.06068116344943 0  25.20726888662696 5.39380471369669 0  4.663810833468126 12.03708281694991 0  4.129886068958568 8.009389011796355 0  9.143585077000447 12.04102084076526 0  12.3047877866066 8.601199871266616 0  4.295834197379802 8.448274252832645 0  4.732406272778634 8.506245223340766 0  3.95077514519255 7.58788524324137 0  11.1607582949209 12.0802143316444 0  13.64892363724692 8.860388167673051 0  3.836931060889729 8.371326261837305 0  12.62379124499663 12.07078844057459 0  15.13761625350022 9.039541622103046 0  4.000152808828421 8.810584707587543 0  26.77125000201761 10.2839338558412 0  4.122309070017037 0.3861401637434057 0  14.0635251803498 12.03041628874353 0  16.05732734551388 12.07999975152229 0  3.536188132566267 8.73303233387726 0  18.04933817214319 12.09359802683468 0  17.61972043111628 5.924882770374886 0  6.840006159450864 1.706054879724695 0  0.415279083109672 10.75470837740533 0  3.700699558878556 9.176188192385226 0  6.59868148351561 7.614266298283392 0  16.93228717019585 9.307414262068599 0  3.232833244744073 9.097676376624067 0  3.062375270655966 8.658068458912597 0  0.3653109128741949 1.73116980382323 0  17.76269788812861 9.230509795488809 0  18.15244931708408 8.979312217058411 0  18.17014020412498 9.453102173756957 0  18.57072004417289 9.199946956117605 0  18.58890386249078 9.675648042716901 0  18.99209945889125 9.421545990816302 0  18.97331269318002 8.944702023039422 0  19.39691085530343 9.166734632498002 0  19.37768538552337 8.686683112264582 0  19.8036096597826 8.910614945345609 0  19.78418097038204 8.428314409646962 0  20.21224291905332 8.653633505020196 0  20.19260741293627 8.17043684331451 0  20.62197777177558 8.395353407528379 0  20.64032375510926 8.880700700712692 0  21.05186943458813 8.621293884641291 0  21.06993794014935 9.108064270993331 0  21.48248609161825 8.847937626249397 0  21.46351624968757 8.361253123503898 0  21.89507350114861 8.587874073707072 0  21.87578851614215 8.100143225350861 0  22.30828965054497 8.32730727673321 0  22.32728115596267 8.815699852810278 0  22.7412726012057 8.555053625915896 0  22.75965842607893 9.043402525763078 0  23.1745999905427 8.782890896265943 0  23.15556606375166 8.293338428505701 0  23.58957762341421 8.521654178328507 0  23.60741709862431 9.011631242660913 0  23.57050547153976 8.031100330905751 0  24.00484799077878 8.259613651262274 0  19.41308502214718 9.646996212211572 0  19.76402970588546 7.945167013387221 0  20.17269462896576 7.686539504474424 0  19.74352282669905 7.462044905391463 0  23.98613660023143 7.768581660530208 0  23.55252769182158 7.542258752867784 0  20.15278741213113 7.202722539218694 0  19.72358313867048 6.977500130047841 0 
[...]
<PointData  Vectors="u"> 
<DataArray  type="Float64"  Name="u"  NumberOfComponents="3" format="ascii">-9.0232344515522123e-01 4.2580323202341680e-01 0.0000000000000000e+00  -8.9751071168393270e-01 -6.6073925552155299e-01 0.0000000000000000e+00  -1.0764799708759780e-01 -6.6497622724127792e-01 0.0000000000000000e+00  -3.5543187541184840e-01 -2.9130572281615325e-01 0.0000000000000000e+00  1.4829907799641823e-01 -9.9176149178499762e-02 0.0000000000000000e+00  6.7664260694343303e-01 5.9627545538685212e-02 0.0000000000000000e+00  6.2432457063463942e-01 3.0214589271582257e-02 0.0000000000000000e+00  6.2962155346703064e-01 7.7252337417808240e-03 0.0000000000000000e+00  6.2819722595906291e-01 7.7420127600255897e-03 0.0000000000000000e+00  6.2877296652475023e-01 6.7878599171331891e-03 0.0000000000000000e+00  6.2442022579067835e-01 0.0000000000000000e+00 0.0000000000000000e+00  2.3935651556759865e-01 0.0000000000000000e+00 0.0000000000000000e+00  -8.9735988154024571e-01 3.5585121248827339e-01 0.0000000000000000e+00  -8.9258245619426035e-01 2.8659852134865410e-01 0.0000000000000000e+00  -8.8844073597206141e-01 2.1839440354069298e-01 0.0000000000000000e+00  -8.8554595413583648e-01 1.5076782738089092e-01 0.0000000000000000e+00  -8.8405690477554422e-01 8.3049574909109566e-02 0.0000000000000000e+00  -8.8401044695979702e-01 1.4742226579427302e-02 0.0000000000000000e+00  -8.8524178090905226e-01 -5.4751198005290942e-02 0.0000000000000000e+00  -8.8744030770571825e-01 -1.2586529532506399e-01 0.0000000000000000e+00  -8.9016750048199711e-01 -1.9892023142146772e-01 0.0000000000000000e+00  -8.9283292339097997e-01 -2.7387335318186828e-01 0.0000000000000000e+00  -8.9500526686213477e-01 -3.5036940438738007e-01 0.0000000000000000e+00  -8.9645921124695405e-01 -4.2776509017835107e-01 0.0000000000000000e+00  -8.9724559210131061e-01 -5.0556282357852300e-01 0.0000000000000000e+00  -8.9750528977245636e-01 -5.8328811877028808e-01 0.0000000000000000e+00  -8.1909689777895101e-01 -6.6075031287929897e-01 0.0000000000000000e+00  -7.4090723371035849e-01 -6.6102372140045662e-01 0.0000000000000000e+00  -6.6266306516138707e-01 -6.6175662128919333e-01 0.0000000000000000e+00  -5.8394517903095844e-01 -6.6288860162007290e-01 0.0000000000000000e+00  -5.0443547007896572e-01 -6.6412921030615368e-01 0.0000000000000000e+00  -4.2451184301298683e-01 -6.6495157504083269e-01 0.0000000000000000e+00  -3.4462304837401198e-01 -6.6513204847956142e-01 0.0000000000000000e+00  -2.6544566523562996e-01 -6.6504063071980268e-01 0.0000000000000000e+00  -1.8650804372506477e-01 -6.6497609157183735e-01 0.0000000000000000e+00  -1.4837714713835023e-01 -6.0414156376261019e-01 0.0000000000000000e+00  -1.8914776004812767e-01 -5.4333276185932811e-01 0.0000000000000000e+00  -2.2986486314697130e-01 -4.8278363262845503e-01 0.0000000000000000e+00  -2.6974628005150242e-01 -4.2329731281590277e-01 0.0000000000000000e+00  -3.0618771249863430e-01 -3.6670769510762713e-01 0.0000000000000000e+00  -3.0069387140161824e-01 -2.6744921082446732e-01 0.0000000000000000e+00  -2.4163979274724301e-01 -2.4941548741384689e-01 0.0000000000000000e+00  -1.8185398778816855e-01 -2.3264834852491320e-01 0.0000000000000000e+00  -1.2176759565471518e-01 -2.1520969882770383e-01 0.0000000000000000e+00  -6.0952093517745394e-02 -1.9549188524862643e-01 0.0000000000000000e+00  1.4224114758244488e-03 -1.7191262428602419e-01 0.0000000000000000e+00  6.6820987833078493e-02 -1.4198323884777719e-01 0.0000000000000000e+00  1.9114543953813493e-01 -5.4547523738519295e-02 0.0000000000000000e+00  2.1849599564168096e-01 -3.3308034281295133e-02 0.0000000000000000e+00  2.3907447817916697e-01 -1.8998998635217992e-02 0.0000000000000000e+00  2.5626686966563578e-01 -7.7185543026281681e-03 0.0000000000000000e+00  2.7138655899370295e-01 1.3325288773335723e-03 0.0000000000000000e+00  2.8509116114742405e-01 9.1445972789791583e-03 0.0000000000000000e+00  2.9790126256967725e-01 1.5624483387934481e-02 0.0000000000000000e+00  3.1026660279138468e-01 2.1035208337330257e-02 0.0000000000000000e+00  3.2223023511372312e-01 2.5766237078576355e-02 0.0000000000000000e+00  3.3419295094792845e-01 2.9732957066990570e-02 0.0000000000000000e+00  3.4618734342863172e-01 3.3234553235276548e-02 0.0000000000000000e+00  3.5837826361012187e-01 3.6274081211160866e-02 0.0000000000000000e+00  3.7091572325488953e-01 3.9159877837798202e-02 0.0000000000000000e+00  3.8390341792671356e-01 4.1948225761653891e-02 0.0000000000000000e+00  3.9741341625487486e-01 4.5003297823712839e-02 0.0000000000000000e+00  4.1145793848283546e-01 4.8761435584325261e-02 0.0000000000000000e+00  4.2625337520012119e-01 5.3483862504359492e-02 0.0000000000000000e+00  4.4139361496165969e-01 5.9928906594723948e-02 0.0000000000000000e+00  4.5672368952750514e-01 6.8559971590443580e-02 0.0000000000000000e+00  4.7251423223887512e-01 7.9304273496196148e-02 0.0000000000000000e+00  4.8878717144373379e-01 9.1713674201757744e-02 0.0000000000000000e+00  5.0594564567864131e-01 1.0501497296039526e-01 0.0000000000000000e+00  5.2482694458328050e-01 1.1787687920794832e-01 0.0000000000000000e+00  5.4807022635686875e-01 1.2960491307526467e-01 0.0000000000000000e+00  5.8077831854422690e-01 1.4142802989140774e-01 0.0000000000000000e+00  7.3794466775045064e-01 1.9168706066968095e-02 0.0000000000000000e+00  6.8141564582624137e-01 3.2399707360752678e-02 0.0000000000000000e+00  6.6153809125179663e-01 3.4548674300124885e-02 0.0000000000000000e+00  6.5105121677875055e-01 3.3750603985789995e-02 0.0000000000000000e+00  6.4442190684470502e-01 3.2497747267524357e-02 0.0000000000000000e+00  6.3973558292265109e-01 3.1453141904522725e-02 0.0000000000000000e+00  6.3608263422594480e-01 3.0706867670614882e-02 0.0000000000000000e+00  6.3298208988286553e-01 3.0247130141709804e-02 0.0000000000000000e+00  6.3010123108882898e-01 3.0078684574608966e-02 0.0000000000000000e+00  6.2723674420782582e-01 3.0109648693416376e-02 0.0000000000000000e+00  6.2476552733095636e-01 2.7083619104857515e-02 0.0000000000000000e+00  6.2529856091180414e-01 2.3874407886039305e-02 0.0000000000000000e+00  6.2601042683281083e-01 2.0770967371458005e-02 0.0000000000000000e+00  6.2686622371120637e-01 1.7941480067277780e-02 0.0000000000000000e+00  6.2775717431997347e-01 1.5530373297126586e-02 0.0000000000000000e+00  6.2856297818820650e-01 1.3581411240238048e-02 0.0000000000000000e+00  6.2921225976554251e-01 1.2092346568532380e-02 0.0000000000000000e+00  6.2966113881362296e-01 1.0941366370508857e-02 0.0000000000000000e+00  6.2990467755060031e-01 1.0034530786352375e-02 0.0000000000000000e+00  6.2998386142477680e-01 9.3293213014567309e-03 0.0000000000000000e+00  6.2995657605077038e-01 8.7497743382968091e-03 0.0000000000000000e+00  6.2986549595889296e-01 8.2491719975401299e-03 0.0000000000000000e+00  6.2975962410700037e-01 7.8053406175940428e-03 0.0000000000000000e+00  6.2966211444361331e-01 7.4313500697678657e-03 0.0000000000000000e+00  6.2959130307303979e-01 7.1261668367927685e-03 0.0000000000000000e+00  6.2956134719316192e-01 6.8906037464003646e-03 0.0000000000000000e+00  6.2956019927116946e-01 6.7468130993980479e-03 0.0000000000000000e+00  6.2958505582051172e-01 6.6849735825213778e-03 0.0000000000000000e+00  6.2962424586352495e-01 6.7060525237765591e-03 0.0000000000000000e+00  6.2965808021617842e-01 6.8042239545241523e-03 0.0000000000000000e+00  6.2967664557438019e-01 6.9536788131371510e-03 0.0000000000000000e+00  6.2968001062202694e-01 7.1355357241389529e-03 0.0000000000000000e+00  6.2966846748324079e-01 7.3310613291946228e-03 0.0000000000000000e+00  6.2964752552485048e-01 7.5291536579239803e-03 0.0000000000000000e+00  6.2944750375533354e-01 7.7261706388652212e-03 0.0000000000000000e+00  6.2927417799790974e-01 7.7295896903027779e-03 0.0000000000000000e+00  6.2909852027624713e-01 7.7344534944120621e-03 0.0000000000000000e+00  6.2891908420250497e-01 7.7389468226557552e-03 0.0000000000000000e+00  6.2873832731054602e-01 7.7412942454790764e-03 0.0000000000000000e+00  6.2855759748631312e-01 7.7420533320941903e-03 0.0000000000000000e+00  6.2837720653443951e-01 7.7420255839507190e-03 0.0000000000000000e+00  6.2830050876464960e-01 7.5877570913594683e-03 0.0000000000000000e+00  6.2840343706535784e-01 7.4340099656707969e-03 0.0000000000000000e+00  6.2850473173930432e-01 7.2807465874895009e-03 0.0000000000000000e+00  6.2860237967491572e-01 7.1269209602714033e-03 0.0000000000000000e+00  6.2869357852679797e-01 6.9695041058138269e-03 0.0000000000000000e+00  6.2833161541805138e-01 6.6437016722347107e-03 0.0000000000000000e+00  6.2782496748897998e-01 6.3978214856396844e-03 0.0000000000000000e+00  6.2726844566107531e-01 6.0236739224062402e-03 0.0000000000000000e+00  6.2668411248931977e-01 5.5012010146191642e-03 0.0000000000000000e+00  6.2609971035800827e-01 4.8739887807014758e-03 0.0000000000000000e+00  6.2557522268345189e-01 4.0988574412150845e-03 0.0000000000000000e+00  6.2511544388438600e-01 3.1989384126369000e-03 0.0000000000000000e+00  6.2475086033455940e-01 2.1959315621202084e-03 0.0000000000000000e+00  6.2451659790405945e-01 1.1236316272593052e-03 0.0000000000000000e+00  6.2400254486616602e-01 0.0000000000000000e+00 0.0000000000000000e+00  6.2356662106058269e-01 0.0000000000000000e+00 0.0000000000000000e+00  6.2307928141551205e-01 0.0000000000000000e+00 0.0000000000000000e+00  6.2249901839916510e-01 0.0000000000000000e+00 0.0000000000000000e+00  6.2178535289000014e-01 0.0000000000000000e+00 0.0000000000000000e+00  6.2088905660789162e-01 0.0000000000000000e+00 0.0000000000000000e+00  6.1975802169558447e-01 0.0000000000000000e+00 0.0000000000000000e+00  6.1834972292571677e-01 0.0000000000000000e+00 0.0000000000000000e+00  6.1658087983124665e-01 0.0000000000000000e+00 0.0000000000000000e+00  6.1436569933732788e-01 0.0000000000000000e+00 0.0000000000000000e+00  6.1164399143855108e-01 0.0000000000000000e+00 0.0000000000000000e+00  6.0823854682003731e-01 0.0000000000000000e+00 0.0000000000000000e+00  6.0409941979632609e-01 0.0000000000000000e+00 0.0000000000000000e+00  5.9901716246209680e-01 0.0000000000000000e+00 0.0000000000000000e+00  5.9296583953567006e-01 0.0000000000000000e+00 0.0000000000000000e+00  5.8575329787125541e-01 0.0000000000000000e+00 0.0000000000000000e+00  5.7743837742505921e-01 0.0000000000000000e+00 0.0000000000000000e+00  5.6802149161509541e-01 0.0000000000000000e+00 0.0000000000000000e+00  5.5733825696425698e-01 0.0000000000000000e+00 0.0000000000000000e+00  5.4545933765295362e-01 0.0000000000000000e+00 0.0000000000000000e+00  5.3242769542140655e-01 0.0000000000000000e+00 0.0000000000000000e+00  5.1829006588943438e-01 0.0000000000000000e+00 0.0000000000000000e+00  5.0347017254319548e-01 0.0000000000000000e+00 0.0000000000000000e+00  4.8833214416492338e-01 0.0000000000000000e+00 0.0000000000000000e+00  4.7322813480288944e-01 0.0000000000000000e+00 0.0000000000000000e+00  4.5845064845180877e-01 0.0000000000000000e+00 0.0000000000000000e+00  4.4422945049511831e-01 0.0000000000000000e+00 0.0000000000000000e+00  4.3054238897370878e-01 0.0000000000000000e+00 0.0000000000000000e+00  4.1736978777260469e-01 0.0000000000000000e+00 0.0000000000000000e+00  4.0478939933861613e-01 0.0000000000000000e+00 0.0000000000000000e+00  3.9266969186902750e-01 0.0000000000000000e+00 0.0000000000000000e+00  3.8110238293493315e-01 0.0000000000000000e+00 0.0000000000000000e+00  3.6995402974859404e-01 0.0000000000000000e+00 0.0000000000000000e+00  3.5933981104177132e-01 0.0000000000000000e+00 0.0000000000000000e+00  3.4932340826624964e-01 0.0000000000000000e+00 0.0000000000000000e+00  3.3994761879913232e-01 0.0000000000000000e+00 0.0000000000000000e+00  3.3129882303954511e-01 0.0000000000000000e+00 0.0000000000000000e+00  3.2359675371451069e-01 0.0000000000000000e+00 0.0000000000000000e+00  3.1679219274984538e-01 0.0000000000000000e+00 0.0000000000000000e+00  3.1099518282060823e-01 0.0000000000000000e+00 0.0000000000000000e+00  3.0635745497940392e-01 0.0000000000000000e+00 0.0000000000000000e+00  3.0258944493507250e-01 0.0000000000000000e+00 0.0000000000000000e+00  2.9979213657539694e-01 0.0000000000000000e+00 0.0000000000000000e+00  2.9779761894749834e-01 0.0000000000000000e+00 0.0000000000000000e+00  2.9631466966028758e-01 0.0000000000000000e+00 0.0000000000000000e+00  2.9490478389011671e-01 0.0000000000000000e+00 0.0000000000000000e+00  2.9314998450792745e-01 0.0000000000000000e+00 0.0000000000000000e+00  2.9084328757973227e-01 0.0000000000000000e+00 0.0000000000000000e+00  2.8771012961490633e-01 0.0000000000000000e+00 0.0000000000000000e+00  2.8325802535189543e-01 0.0000000000000000e+00 0.0000000000000000e+00  2.7739135005438709e-01 0.0000000000000000e+00 0.0000000000000000e+00  2.6992416411412828e-01 0.0000000000000000e+00 0.0000000000000000e+00  2.6103554722085848e-01 0.0000000000000000e+00 0.0000000000000000e+00  2.5080448833242841e-01 0.0000000000000000e+00 0.0000000000000000e+00  2.3795518573873786e-01 2.0353548995759824e-02 0.0000000000000000e+00  2.3447616311467859e-01 4.0888335019991076e-02 0.0000000000000000e+00  2.2812694085796659e-01 6.1832803322069911e-02 0.0000000000000000e+00  2.1890829687163255e-01 8.3476298633304871e-02 0.0000000000000000e+00  2.0658877989468438e-01 1.0592500110950752e-01 0.0000000000000000e+00  1.9083705006864973e-01 1.2916878738558343e-01 0.0000000000000000e+00  1.7072602154472963e-01 1.5298469444748361e-01 0.0000000000000000e+00  1.4638641590505611e-01 1.7849141154414594e-01 0.0000000000000000e+00  1.1631555357333427e-01 2.0426617058357688e-01 0.0000000000000000e+00  8.0982671487709920e-02 2.3009190692427053e-01 0.0000000000000000e+00  3.9961874256773895e-02 2.5577359542676387e-01 0.0000000000000000e+00  -6.8480972978430150e-03 2.8060819679230020e-01 0.0000000000000000e+00  -5.9203900100422292e-02 3.0410039270215639e-01 0.0000000000000000e+00  -1.1669430326250155e-01 3.2589505003612618e-01 0.0000000000000000e+00  -1.7878359869568722e-01 3.4560934752992484e-01 0.0000000000000000e+00  -2.4483082760415406e-01 3.6304641776697960e-01 0.0000000000000000e+00  -3.1410167146571377e-01 3.7804215629617416e-01 0.0000000000000000e+00  -3.8583737303478777e-01 3.9055107832073427e-01 0.0000000000000000e+00  -4.5909494511144089e-01 4.0060434994225114e-01 0.0000000000000000e+00  -5.3371295743361802e-01 4.0849316882810932e-01 0.0000000000000000e+00  -6.0855413562683880e-01 4.1472277769755972e-01 0.0000000000000000e+00  -6.8311019515074756e-01 4.1895074914703301e-01 0.0000000000000000e+00  -7.5702824073355401e-01 4.2181487883235824e-01 0.0000000000000000e+00  -8.3006115606211972e-01 4.2391731770046237e-01 0.0000000000000000e+00  6.3070283812920813e-01 9.8320691989711613e-03 0.0000000000000000e+00  6.8052661383334179e-01 4.6383049083051672e-02 0.0000000000000000e+00  6.1763352665551918e-01 2.0290483225867766e-03 0.0000000000000000e+00  6.2998297782770696e-01 7.7124130909653745e-03 0.0000000000000000e+00  6.2737059092587499e-01 5.8190276486860485e-03 0.0000000000000000e+00  6.0669508578370324e-01 3.3112216065292106e-03 0.0000000000000000e+00  2.8883299679461666e-01 9.6723275965629007e-04 0.0000000000000000e+00  1.8321478990584167e-01 -7.7371482355513679e-02 0.0000000000000000e+00  1.9465138252809783e-01 1.1950617344745530e-01 0.0000000000000000e+00  6.3029376307490725e-01 1.2872339807754520e-02 0.0000000000000000e+00  3.0023339532813431e-01 -3.8583198601224913e-03 0.0000000000000000e+00  6.5457279604204865e-01 2.6908537904348637e-02 0.0000000000000000e+00  1.6851556248066846e-01 -7.7545159055564861e-02 0.0000000000000000e+00  1.9592122326869077e-01 -6.7196633076865298e-02 0.0000000000000000e+00  -2.0713925798853006e-02 -1.3352781352095511e-01 0.0000000000000000e+00  -2.0625781492431394e-01 -1.8527781580358071e-01 0.0000000000000000e+00  -8.2315534057647610e-01 4.8249505730419251e-02 0.0000000000000000e+00  2.8904418397273479e-01 7.2974790380842848e-03 0.0000000000000000e+00  6.2153962177116207e-01 1.2018933485873605e-03 0.0000000000000000e+00  -4.0642365988911971e-01 3.3106708847625255e-01 0.0000000000000000e+00  3.2699559863752681e-01 2.3063233167069618e-02 0.0000000000000000e+00  1.8450466006283553e-01 -5.8231784322672703e-02 0.0000000000000000e+00  2.0871667590592372e-01 -5.3398360518002945e-02 0.0000000000000000e+00  -1.3753283577760120e-01 2.8450533524994581e-01 0.0000000000000000e+00  3.1324022251963196e-01 -2.0020814367051783e-03 0.0000000000000000e+00  2.7139974945488782e-02 2.3013458528980971e-01 0.0000000000000000e+00  3.6697432594146784e-01 3.3571586868933953e-02 0.0000000000000000e+00  5.8986836222644390e-01 5.6152523847543424e-03 0.0000000000000000e+00  6.2964212170238831e-01 6.8427555823746735e-03 0.0000000000000000e+00  2.9470671263128695e-01 -3.7854012260406227e-03 0.0000000000000000e+00  1.9987946459789135e-01 -4.0709731237887799e-02 0.0000000000000000e+00  3.3513161121338847e-01 6.3761224054703820e-04 0.0000000000000000e+00  4.0408501521904894e-01 4.1606905347824560e-02 0.0000000000000000e+00  2.2098790452485856e-01 -3.9100024864264872e-02 0.0000000000000000e+00  2.2653990766825147e-01 -4.7030341283199856e-02 0.0000000000000000e+00  1.7287745271491023e-01 -3.7752867091495279e-02 0.0000000000000000e+00  3.7617517807858153e-01 3.0913866057602694e-03 0.0000000000000000e+00  4.4338926794381517e-01 5.5034159103376543e-02 0.0000000000000000e+00  2.1314960681548267e-01 -2.4512204505622415e-02 0.0000000000000000e+00  4.1138659850259457e-01 4.9280423652017253e-03 0.0000000000000000e+00  4.9264479327055227e-01 8.5649402072056666e-02 0.0000000000000000e+00  2.3227486135806777e-01 -2.5458964960904707e-02 0.0000000000000000e+00  6.2556716028459747e-01 4.1646214481778293e-03 0.0000000000000000e+00  -8.3047363497142090e-01 -1.6108218355432297e-01 0.0000000000000000e+00  4.5054400514994869e-01 7.8819726771886967e-03 0.0000000000000000e+00  5.1113947116413361e-01 9.1542929382501421e-03 0.0000000000000000e+00  2.2506661505745346e-01 -9.7829194923118520e-03 0.0000000000000000e+00  5.6364993982169243e-01 6.9927242294785053e-03 0.0000000000000000e+00  6.3728629417722638e-01 2.7633542918014946e-02 0.0000000000000000e+00  -6.2658269091950292e-01 -5.9196325381045545e-01 0.0000000000000000e+00  2.3417404749965892e-01 6.4127428667989844e-02 0.0000000000000000e+00  2.4246700348054814e-01 -1.2851082809964148e-02 0.0000000000000000e+00  2.4528728620798773e-01 -1.9438707081479926e-02 0.0000000000000000e+00  6.0386854726079964e-01 8.4942343106559390e-02 0.0000000000000000e+00  2.3559015648450143e-01 3.1329292841956739e-03 0.0000000000000000e+00  2.1622124758957670e-01 1.0580493903445282e-02 0.0000000000000000e+00  -6.4442206747010955e-01 3.6371378262299803e-01 0.0000000000000000e+00  6.4332692007146153e-01 5.5178936132630987e-02 0.0000000000000000e+00  6.5282999895567140e-01 4.5505401742106218e-02 0.0000000000000000e+00  6.2795085747900903e-01 4.6995967631221554e-02 0.0000000000000000e+00  6.3729772060952838e-01 4.0477480946539003e-02 0.0000000000000000e+00  6.1957436116565734e-01 3.9482243464803890e-02 0.0000000000000000e+00  6.2791115342423387e-01 3.4969904884271812e-02 0.0000000000000000e+00  6.3997457077663167e-01 3.3529788655928025e-02 0.0000000000000000e+00  6.3187750255914277e-01 2.9909121159462888e-02 0.0000000000000000e+00  6.3985665226007093e-01 2.7807316659607596e-02 0.0000000000000000e+00  6.3345164168496870e-01 2.5377409449564126e-02 0.0000000000000000e+00  6.3873974333554751e-01 2.3358506933071056e-02 0.0000000000000000e+00  6.3381931813756354e-01 2.1608566986297158e-02 0.0000000000000000e+00  6.3735032823770943e-01 1.9896555962461936e-02 0.0000000000000000e+00  6.3361278353803352e-01 1.8535006045486965e-02 0.0000000000000000e+00  6.3004185314286976e-01 1.9452213547187437e-02 0.0000000000000000e+00  6.3060749056435839e-01 1.6848845076018058e-02 0.0000000000000000e+00  6.2725316969423017e-01 1.7139064291028558e-02 0.0000000000000000e+00  6.2829120728337595e-01 1.5014999445361664e-02 0.0000000000000000e+00  6.3077617002361519e-01 1.4676948195088533e-02 0.0000000000000000e+00  6.2888447715474705e-01 1.3201160446813940e-02 0.0000000000000000e+00  6.3072816993308356e-01 1.2876887577284410e