<?xml version="1.0"?>
<VTKFile type="UnstructuredGrid"  version="0.1"  >
<UnstructuredGrid>
<Piece  NumberOfPoints="1239" NumberOfCells="2337">
<Points>
<DataArray  type="Float64"  NumberOfComponents="3"  format="ascii">40 0 0  20 0 0  20 10.71488438733665 0  22.93625258820517 8.135735854838252 0  22.93625258820517 12.5 0  40 12.5 0  39.5 0 0  39 0 0  38.5 0 0  38 0 0  37.5 0 0  37 0 0  36.5 0 0  36 0 0  35.5 0 0  35 0 0  34.5 0 0  34 0 0  33.5 0 0  33 0 0  32.5 0 0  32 0 0  31.5 0 0  31 0 0  30.5 0 0  30 0 0  29.5 0 0  29 0 0  28.5 0 0  28 0 0  27.5 0 0  27 0 0  26.5 0 0  26 0 0  25.5 0 0  25 0 0  24.5 0 0  24 0 0  23.5 0 0  23 0 0  22.5 0 0  22 0 0  21.5 0 0  21 0 0  20.5 0 0  20 0.4870401994243931 0  20 0.9740803988487863 0  20 1.461120598273179 0  20 1.948160797697573 0  20 2.435200997121965 0  20 2.922241196546359 0  20 3.409281395970752 0  20 3.896321595395145 0  20 4.383361794819538 0  20 4.870401994243931 0  20 5.357442193668325 0  20 5.844482393092718 0  20 6.331522592517111 0  20 6.818562791941504 0  20 7.305602991365897 0  20 7.79264319079029 0  20 8.279683390214684 0  20 8.766723589639076 0  20 9.25376378906347 0  20 9.740803988487862 0  20 10.22784418791226 0  20.36703157352565 10.39249082077435 0  20.73406314705129 10.07009725421205 0  21.10109472057694 9.74770368764975 0  21.46812629410259 9.425310121087451 0  21.83515786762823 9.102916554525152 0  22.20218944115388 8.780522987962851 0  22.56922101467953 8.458129421400551 0  22.93625258820517 8.620654093189557 0  22.93625258820517 9.105572331540863 0  22.93625258820517 9.590490569892168 0  22.93625258820517 10.07540880824347 0  22.93625258820517 10.56032704659478 0  22.93625258820517 11.04524528494608 0  22.93625258820517 11.53016352329739 0  22.93625258820517 12.01508176164869 0  23.42378822854217 12.5 0  23.91132386887917 12.5 0  24.39885950921616 12.5 0  24.88639514955316 12.5 0  25.37393078989015 12.5 0  25.86146643022715 12.5 0  26.34900207056414 12.5 0  26.83653771090113 12.5 0  27.32407335123813 12.5 0  27.81160899157512 12.5 0  28.29914463191212 12.5 0  28.78668027224911 12.5 0  29.27421591258611 12.5 0  29.7617515529231 12.5 0  30.2492871932601 12.5 0  30.7368228335971 12.5 0  31.22435847393409 12.5 0  31.71189411427108 12.5 0  32.19942975460808 12.5 0  32.68696539494508 12.5 0  33.17450103528207 12.5 0  33.66203667561906 12.5 0  34.14957231595606 12.5 0  34.63710795629305 12.5 0  35.12464359663005 12.5 0  35.61217923696704 12.5 0  36.09971487730404 12.5 0  36.58725051764104 12.5 0  37.07478615797802 12.5 0  37.56232179831503 12.5 0  38.04985743865202 12.5 0  38.53739307898901 12.5 0  39.02492871932601 12.5 0  39.512464359663 12.5 0  40 12 0  40 11.5 0  40 11 0  40 10.5 0  40 10 0  40 9.5 0  40 9 0  40 8.5 0  40 8 0  40 7.5 0  40 7 0  40 6.5 0  40 6 0  40 5.5 0  40 5 0  40 4.5 0  40 4 0  40 3.5 0  40 3 0  40 2.5 0  40 2 0  40 1.5 0  40 1 0  40 0.5 0  33.40600869520969 12.08795624723204 0  29.03044809241761 12.07778175021785 0  31.24961397993837 0.421255478908682 0  33.77301091407283 0.4429183360083897 0  28.73775194253818 0.4245070153297927 0  39.58916089906971 6.225036106003737 0  26.23151361499077 0.42271442385087 0  31.44273723405124 12.06827297516675 0  35.38102184396211 12.09679480089813 0  27.13889007910368 12.06809967129214 0  39.5328081303217 4.194456023068188 0  24.20498240916319 0.5045543684596332 0  39.58783221437756 8.223572397395358 0  35.6960924110989 0.4485717781909422 0  23.35635530405431 8.378281576851325 0  23.34511937401968 7.892491820270433 0  23.77903035253392 8.142497027176015 0  23.76951411596929 7.648156391146702 0  24.20125131426059 7.900604029746814 0  24.1967249353663 7.408353231125619 0  24.61964878173846 7.650119387793798 0  24.61505272462334 7.162028185954361 0  25.04443194444199 7.41261358462728 0  25.03803093815669 6.916940157081758 0  25.46882249632423 7.170708766046275 0  25.46478710390815 6.675663691575769 0  25.89271147628814 6.92100122329421 0  25.88570239366262 6.430174310252852 0  26.32237172967406 6.68212434913737 0  25.02915241183983 6.425430215476035 0  26.31129684433746 6.184111588696519 0  26.74456372847898 6.434953091882045 0  20.41790111514224 3.678087769108084 0  26.73966232013605 5.938063240265323 0  27.16557234494096 6.183639679631913 0  27.16984276665766 6.67978474674833 0  27.59109503119877 6.429302166352016 0  27.58998733086146 5.937540668556769 0  28.01565897650296 6.183392424486613 0  28.02165033860051 6.677567611453664 0  28.44312308091629 6.428314428383048 0  28.44712203922602 5.94004349782462 0  28.8693556232826 6.184899677983645 0  28.86839531048589 6.674235474033581 0  29.29419915403597 6.429890844803323 0  29.30193102980749 5.942719234772349 0  29.72051678121351 6.184179753370997 0  29.72790781466134 6.683965776562517 0  30.15198764901532 6.436489825993228 0  30.15675531523772 5.944901911766415 0  30.57535405747631 6.186686138731215 0  30.58554476556789 6.690261398832847 0  31.00671285684846 6.438744846079613 0  31.01223740819529 5.947049881556035 0  31.43030141509221 6.188500784820692 0  31.43802907986541 6.690326842407749 0  31.86073618834727 6.439626444824174 0  31.86810783667537 5.949016077342564 0  32.28605227254078 6.190589061946479 0  32.29192383076634 6.691188819467298 0  32.71625212794096 6.441502964878953 0  32.71482658244455 5.945203456921353 0  33.14179644571053 6.193723337786955 0  33.14381404196333 6.691198174359779 0  33.56926669342003 6.440499786632143 0  33.57101003983372 5.945484810592402 0  33.56923677035315 6.937498514378454 0  33.99693429455377 6.689254091037065 0  33.99618459633297 7.184299925985163 0  34.42406872888959 6.939121652341172 0  33.57108941882812 7.434203946932259 0  39.56302244347259 9.764867813826811 0  37.18489705780947 0.4742928455461808 0  20.39396229750373 5.142144595241211 0  26.3097120039658 5.691520614089612 0  36.82906948648815 12.10222479111128 0  25.91030949287111 7.429578129475201 0  34.42361922688345 7.432856420724534 0  34.85220600308018 7.186874497629757 0  34.85740392760405 6.693341073987153 0  34.8507593991073 7.681318248836897 0  24.62701777267459 8.142627290051511 0  22.73854676420158 0.4263051368854658 0  23.75916037968278 7.158758895419727 0  35.2797378721289 7.435379507085321 0  35.27805355301444 7.9298948110201 0  34.84928542106484 8.175533931962654 0  25.56443066127637 12.0666121301664 0  39.56698729810778 2.75 0  35.27608012705399 8.42398629468985 0  35.70739703624928 7.684047597173889 0  34.8478429766888 8.669289471872336 0  35.27408020093505 8.917396662393941 0  23.37848086059405 10.32980529180609 0  20.41018449137966 2.203555519248418 0  20.39525419004902 6.604083844364657 0  34.84644916660093 9.162282085089906 0  35.27238650589403 9.410224134411298 0  35.6998484086234 9.165568254250921 0  38.27063152616837 12.09618477582931 0  34.84512937351429 9.654774596225218 0  34.41958155529478 9.407300557914127 0  35.69812837527842 9.658197277330423 0  36.12564066951689 9.413479965793304 0  22.42087337171286 7.934360964432292 0  34.41839439409109 9.899422285203942 0  33.99320832119711 9.652181257840873 0  36.12356630318072 9.906083245923927 0  36.55158583086191 9.661550283033272 0  36.5536302401165 9.168135652576233 0  36.98020553295365 9.416615982200923 0  36.98237790597616 8.922185621197803 0  36.97803715908398 9.910612128831538 0  37.41019463394068 9.171539865790923 0  37.41205466210424 8.675976440038122 0  39.57202595798223 10.74965496905506 0  21.74999283411977 0.4237972803562862 0  39.56698729810778 7.25 0  27.26743448599884 0.4229800962169818 0  25.25051252960929 0.43295528056652 0  32.75333467497229 0.5011218094881276 0  30.2044843096205 0.4998439967609603 0  28.04089550482207 12.06432171706097 0  34.74235321746253 0.4238153492279313 0  39.56698729810778 5.25 0  24.66024668282115 12.06186878913876 0  38.27603690070498 0.4612030337349422 0  39.56698787022578 1.750017940044949 0  29.99658815248637 12.08395690239587 0  32.44319757477658 12.07778175021785 0  34.34388407026797 12.08754749315752 0  26.73871032008552 5.445258186181334 0  26.31056035172062 5.199181795726453 0  26.73879367433297 4.952731489021975 0  26.31024208384101 4.706451203338071 0  26.73888529350387 4.459695012710958 0  26.31156861919057 4.213452084206388 0  25.88229516334643 4.459802199286377 0  26.73941515921 3.966925900618147 0  25.88369461596258 3.967193753450249 0  25.45718049985821 4.214109082856996 0  25.45660582736326 3.720752388151376 0  25.0297910435923 3.96768993915193 0  25.02925869513855 3.47426229490948 0  24.6023539314376 3.721287620171552 0  27.16713381036875 4.213065267488849 0  27.16753936622828 3.719408440146019 0  27.59558805645156 3.966090004075353 0  27.59550409772225 3.471314958431132 0  28.02427649018748 3.718732302390273 0  24.60173831184597 3.227776988797167 0  24.17500961664056 3.475066980037075 0  24.17562054995037 3.967837724075475 0  23.74903083832643 3.722345128191861 0  23.74918876197878 4.214014283665255 0  23.74873542071074 3.231694759431873 0  27.16727845425798 3.224781603194093 0  23.32341279981129 3.968904748980122 0  23.32375442286176 4.459657614658629 0  28.02419190683953 3.223372984277423 0  28.45382687674536 3.471715615805765 0  25.02911990131295 2.980357047064597 0  28.45336537057297 2.975320026119695 0  28.88347236539815 3.224002144951471 0  22.89878077189428 4.215026816250656 0  22.89930566919617 4.705148747941977 0  28.88317040703551 2.727163726115823 0  29.31300440455798 2.975455825220191 0  29.31584915981419 3.473805640301648 0  29.74445019302538 3.225109511103187 0  29.74334823224132 2.727542333469787 0  30.17324471478979 2.976069604590625 0  30.17612250678519 3.47486078659139 0  30.60438973711728 3.225800347447421 0  30.60458048048341 2.728442343256647 0  31.03382089617072 2.97721806593208 0  31.03325901076096 3.473881463309 0  31.46376285622288 3.225910288716795 0  31.46372018858552 2.729305787796995 0  31.89398871368829 2.978168700414691 0  31.89359873980989 3.474978778225545 0  32.32402098516888 3.227225574831713 0  32.32453713079177 2.730119144063178 0  32.75503353414164 2.979497534838251 0  32.754343
[...]
<PointData  Vectors="u"> 
<DataArray  type="Float64"  Name="u"  NumberOfComponents="3" format="ascii">2.4295804944224994e-01 1.9227424735608952e-02 0.0000000000000000e+00  2.6735665384919527e-01 -8.1184283199253818e-02 0.0000000000000000e+00  3.2390412959164616e-02 -1.4751961553632589e-01 0.0000000000000000e+00  1.7410189021698233e-01 -3.1095152217552477e-02 0.0000000000000000e+00  1.9990065015141878e-01 0.0000000000000000e+00 0.0000000000000000e+00  2.1885709105542744e-01 0.0000000000000000e+00 0.0000000000000000e+00  2.4245370540131669e-01 1.8203109891190651e-02 0.0000000000000000e+00  2.4194249377267399e-01 1.7192196429883112e-02 0.0000000000000000e+00  2.4142718378143566e-01 1.6220474680740605e-02 0.0000000000000000e+00  2.4092912766925623e-01 1.5292276065319906e-02 0.0000000000000000e+00  2.4045696773904865e-01 1.4422120873799519e-02 0.0000000000000000e+00  2.4003319592040792e-01 1.3596618859140892e-02 0.0000000000000000e+00  2.3965825897826137e-01 1.2836133113413833e-02 0.0000000000000000e+00  2.3935362275169977e-01 1.2096906494781973e-02 0.0000000000000000e+00  2.3912788057365597e-01 1.1392181596174332e-02 0.0000000000000000e+00  2.3898588125045184e-01 1.0704544667609723e-02 0.0000000000000000e+00  2.3894411675938226e-01 1.0024280020808605e-02 0.0000000000000000e+00  2.3900023622343711e-01 9.3342594962860081e-03 0.0000000000000000e+00  2.3917156021499730e-01 8.6212584969950316e-03 0.0000000000000000e+00  2.3945580859821383e-01 7.8669869907636511e-03 0.0000000000000000e+00  2.3985955703564366e-01 7.0536916808448015e-03 0.0000000000000000e+00  2.4039750763956841e-01 6.1666628918913965e-03 0.0000000000000000e+00  2.4106092857933017e-01 5.1799348164305679e-03 0.0000000000000000e+00  2.4186904593797379e-01 4.0832161692344066e-03 0.0000000000000000e+00  2.4280961505744095e-01 2.8336765247074969e-03 0.0000000000000000e+00  2.4387736980453520e-01 1.4078994876294405e-03 0.0000000000000000e+00  2.4511105756358881e-01 -1.7092006672879366e-04 0.0000000000000000e+00  2.4643684976486668e-01 -1.9965924157660663e-03 0.0000000000000000e+00  2.4791344735552384e-01 -4.0488170259949082e-03 0.0000000000000000e+00  2.4949804212223567e-01 -6.3954972388297017e-03 0.0000000000000000e+00  2.5118604327402438e-01 -9.0366248664599785e-03 0.0000000000000000e+00  2.5295873046757789e-01 -1.2003934763898806e-02 0.0000000000000000e+00  2.5476001733991166e-01 -1.5314529079427631e-02 0.0000000000000000e+00  2.5661326207113644e-01 -1.8988842447864571e-02 0.0000000000000000e+00  2.5843864754333462e-01 -2.3039863515927565e-02 0.0000000000000000e+00  2.6019880651772354e-01 -2.7449960857176360e-02 0.0000000000000000e+00  2.6185559627366256e-01 -3.2229937508320976e-02 0.0000000000000000e+00  2.6332723611334807e-01 -3.7306465313738220e-02 0.0000000000000000e+00  2.6463994983346356e-01 -4.2704125150737661e-02 0.0000000000000000e+00  2.6569274102891782e-01 -4.8242408586266106e-02 0.0000000000000000e+00  2.6648734325609624e-01 -5.3925411191951184e-02 0.0000000000000000e+00  2.6701745380155745e-01 -5.9625137551761784e-02 0.0000000000000000e+00  2.6729499820116520e-01 -6.5247851117324535e-02 0.0000000000000000e+00  2.6738897840784237e-01 -7.0713301874329074e-02 0.0000000000000000e+00  2.6738003196854926e-01 -7.6013779964605496e-02 0.0000000000000000e+00  2.6233516156532855e-01 -8.1161848239949208e-02 0.0000000000000000e+00  2.5743261696345787e-01 -8.1152941972779821e-02 0.0000000000000000e+00  2.5271263605765115e-01 -8.1231471408802769e-02 0.0000000000000000e+00  2.4815396394571657e-01 -8.1488121316385276e-02 0.0000000000000000e+00  2.4372407509526839e-01 -8.2004148931466417e-02 0.0000000000000000e+00  2.3935417324368913e-01 -8.2853707899263648e-02 0.0000000000000000e+00  2.3495961285158201e-01 -8.4105116658392778e-02 0.0000000000000000e+00  2.3043255092035581e-01 -8.5833351228457852e-02 0.0000000000000000e+00  2.2564615093460733e-01 -8.8122526348837771e-02 0.0000000000000000e+00  2.2041179145603673e-01 -9.1050462863671106e-02 0.0000000000000000e+00  2.1451737946585772e-01 -9.4709877979078080e-02 0.0000000000000000e+00  2.0765369048960144e-01 -9.9165283970312781e-02 0.0000000000000000e+00  1.9944804270729286e-01 -1.0446965180414265e-01 0.0000000000000000e+00  1.8946346161704805e-01 -1.1048826335732274e-01 0.0000000000000000e+00  1.7729454392740532e-01 -1.1705133877234399e-01 0.0000000000000000e+00  1.6269770214657051e-01 -1.2375622777151690e-01 0.0000000000000000e+00  1.4565770864490268e-01 -1.3009396795269279e-01 0.0000000000000000e+00  1.2644893336181864e-01 -1.3564310576534505e-01 0.0000000000000000e+00  1.0540826236894761e-01 -1.4020700491194413e-01 0.0000000000000000e+00  8.2678566007780271e-02 -1.4378488639609349e-01 0.0000000000000000e+00  5.8325162135571602e-02 -1.4634916900724715e-01 0.0000000000000000e+00  4.9999880355551175e-02 -1.2850288152348066e-01 0.0000000000000000e+00  6.7293745997261983e-02 -1.1203822476281995e-01 0.0000000000000000e+00  8.4112699203063884e-02 -9.7546460202725380e-02 0.0000000000000000e+00  1.0008721200920349e-01 -8.4389543337045167e-02 0.0000000000000000e+00  1.1572506942987661e-01 -7.2305445256944170e-02 0.0000000000000000e+00  1.3137773069239764e-01 -6.0725179574546942e-02 0.0000000000000000e+00  1.4849014653849135e-01 -4.8883437287221505e-02 0.0000000000000000e+00  1.8717135610887284e-01 -2.2449379079881433e-02 0.0000000000000000e+00  1.9209091592804436e-01 -1.7646664159554883e-02 0.0000000000000000e+00  1.9496223624691783e-01 -1.4240926707007424e-02 0.0000000000000000e+00  1.9681126210150893e-01 -1.1423893296361976e-02 0.0000000000000000e+00  1.9805684643765178e-01 -8.9054844139999211e-03 0.0000000000000000e+00  1.9889559760596495e-01 -6.5539352379690337e-03 0.0000000000000000e+00  1.9945119517758211e-01 -4.3108984485681250e-03 0.0000000000000000e+00  1.9977393229335927e-01 -2.1360578003459625e-03 0.0000000000000000e+00  1.9898928864208065e-01 0.0000000000000000e+00 0.0000000000000000e+00  1.9808305145887894e-01 0.0000000000000000e+00 0.0000000000000000e+00  1.9723283161959432e-01 0.0000000000000000e+00 0.0000000000000000e+00  1.9652770437481221e-01 0.0000000000000000e+00 0.0000000000000000e+00  1.9600208997826152e-01 0.0000000000000000e+00 0.0000000000000000e+00  1.9567576407917461e-01 0.0000000000000000e+00 0.0000000000000000e+00  1.9558873969097568e-01 0.0000000000000000e+00 0.0000000000000000e+00  1.9571092943359750e-01 0.0000000000000000e+00 0.0000000000000000e+00  1.9604132322141701e-01 0.0000000000000000e+00 0.0000000000000000e+00  1.9651670244936040e-01 0.0000000000000000e+00 0.0000000000000000e+00  1.9712842326767280e-01 0.0000000000000000e+00 0.0000000000000000e+00  1.9786520349968176e-01 0.0000000000000000e+00 0.0000000000000000e+00  1.9868668439937232e-01 0.0000000000000000e+00 0.0000000000000000e+00  1.9957583639710849e-01 0.0000000000000000e+00 0.0000000000000000e+00  2.0051293638687273e-01 0.0000000000000000e+00 0.0000000000000000e+00  2.0148880019129611e-01 0.0000000000000000e+00 0.0000000000000000e+00  2.0247839196875625e-01 0.0000000000000000e+00 0.0000000000000000e+00  2.0347646323928287e-01 0.0000000000000000e+00 0.0000000000000000e+00  2.0447794281328996e-01 0.0000000000000000e+00 0.0000000000000000e+00  2.0547320645155590e-01 0.0000000000000000e+00 0.0000000000000000e+00  2.0645434640826510e-01 0.0000000000000000e+00 0.0000000000000000e+00  2.0742219914888321e-01 0.0000000000000000e+00 0.0000000000000000e+00  2.0836845928074266e-01 0.0000000000000000e+00 0.0000000000000000e+00  2.0929641664119655e-01 0.0000000000000000e+00 0.0000000000000000e+00  2.1020476283111589e-01 0.0000000000000000e+00 0.0000000000000000e+00  2.1109333051429097e-01 0.0000000000000000e+00 0.0000000000000000e+00  2.1195492956661321e-01 0.0000000000000000e+00 0.0000000000000000e+00  2.1282357067389834e-01 0.0000000000000000e+00 0.0000000000000000e+00  2.1367049303108521e-01 0.0000000000000000e+00 0.0000000000000000e+00  2.1451198467410976e-01 0.0000000000000000e+00 0.0000000000000000e+00  2.1535224141011594e-01 0.0000000000000000e+00 0.0000000000000000e+00  2.1619826625983349e-01 0.0000000000000000e+00 0.0000000000000000e+00  2.1706180594556299e-01 0.0000000000000000e+00 0.0000000000000000e+00  2.1794456429754092e-01 0.0000000000000000e+00 0.0000000000000000e+00  2.1893726249324422e-01 1.3753248234538230e-03 0.0000000000000000e+00  2.1913030696500549e-01 2.7388970645224131e-03 0.0000000000000000e+00  2.1945806750097191e-01 4.0841226868388678e-03 0.0000000000000000e+00  2.1991286299728652e-01 5.4045699022402024e-03 0.0000000000000000e+00  2.2048947835094798e-01 6.6901292261475820e-03 0.0000000000000000e+00  2.2117942991039646e-01 7.9330814137371659e-03 0.0000000000000000e+00  2.2198436730718202e-01 9.1324196473046067e-03 0.0000000000000000e+00  2.2288803478980770e-01 1.0268362796475002e-02 0.0000000000000000e+00  2.2388863313984642e-01 1.1346961054880459e-02 0.0000000000000000e+00  2.2496712095944693e-01 1.2355464944945466e-02 0.0000000000000000e+00  2.2611470004146156e-01 1.3289660615972669e-02 0.0000000000000000e+00  2.2732489765220315e-01 1.4149413973226183e-02 0.0000000000000000e+00  2.2858447264753137e-01 1.4926711529001333e-02 0.0000000000000000e+00  2.2987869097583238e-01 1.5626391347102944e-02 0.0000000000000000e+00  2.3119051085843112e-01 1.6240045492730455e-02 0.0000000000000000e+00  2.3250516294981718e-01 1.6775574473322459e-02 0.0000000000000000e+00  2.3380241576317412e-01 1.7234307913863215e-02 0.0000000000000000e+00  2.3509994230410231e-01 1.7624879653457364e-02 0.0000000000000000e+00  2.3635064588343269e-01 1.7952124137867696e-02 0.0000000000000000e+00  2.3756172208034682e-01 1.8225878321979774e-02 0.0000000000000000e+00  2.3872735119667010e-01 1.8454682703696153e-02 0.0000000000000000e+00  2.3983878237391951e-01 1.8656265293484357e-02 0.0000000000000000e+00  2.4090442950928656e-01 1.8843557440094923e-02 0.0000000000000000e+00  2.4193765138325299e-01 1.9031817000023533e-02 0.0000000000000000e+00  2.0697096277424434e-01 4.6418011963894021e-04 0.0000000000000000e+00  1.9830713467159414e-01 -1.9564504911781061e-04 0.0000000000000000e+00  2.4040275147709869e-01 4.9017753819462599e-03 0.0000000000000000e+00  2.3832534435164299e-01 9.0680882307858941e-03 0.0000000000000000e+00  2.4534174242635820e-01 -2.5709938202420775e-03 0.0000000000000000e+00  2.2742087333126360e-01 1.3618017181542753e-02 0.0000000000000000e+00  2.5264377384479092e-01 -1.6658134422328691e-02 0.0000000000000000e+00  2.0298190277219702e-01 2.8855360944400729e-04 0.0000000000000000e+00  2.1072855207165939e-01 5.7607513292684315e-04 0.0000000000000000e+00  1.9588115369444800e-01 -9.0655612721028190e-04 0.0000000000000000e+00  2.3273981978616512e-01 1.5924652860268812e-02 0.0000000000000000e+00  2.5781449912034010e-01 -3.4628777683716694e-02 0.0000000000000000e+00  2.2274296821491207e-01 1.0104887368426312e-02 0.0000000000000000e+00  2.3849451209668507e-01 1.1590244385833767e-02 0.0000000000000000e+00  1.8204000202035656e-01 -2.5893181031393618e-02 0.0000000000000000e+00  1.8224520224995949e-01 -2.6395650762985157e-02 0.0000000000000000e+00  1.8540072997505838e-01 -2.2747090212252210e-02 0.0000000000000000e+00  1.8809708012493576e-01 -2.3258291247273449e-02 0.0000000000000000e+00  1.8923630679418330e-01 -1.9925515042587192e-02 0.0000000000000000e+00  1.9272128126306637e-01 -2.0463354157416274e-02 0.0000000000000000e+00  1.9294143495600102e-01 -1.7423638878335358e-02 0.0000000000000000e+00  1.9663799460214473e-01 -1.7966064141294636e-02 0.0000000000000000e+00  1.9630750959444940e-01 -1.5073565706039429e-02 0.0000000000000000e+00  2.0005478132340251e-01 -1.5604442083439493e-02 0.0000000000000000e+00  1.9939970415408348e-01 -1.2904506687885888e-02 0.0000000000000000e+00  2.0309057109435610e-01 -1.3370771515152332e-02 0.0000000000000000e+00  2.0230699799381618e-01 -1.0888602807501792e-02 0.0000000000000000e+00  2.0587740955405304e-01 -1.1307497809553209e-02 0.0000000000000000e+00  2.0494840311220891e-01 -8.9683751160959460e-03 0.0000000000000000e+00  2.0445608647828298e-01 -1.6458031859962252e-02 0.0000000000000000e+00  2.0845972799577817e-01 -9.3476686600022073e-03 0.0000000000000000e+00  2.0745245018946862e-01 -7.2072834266325696e-03 0.0000000000000000e+00  2.3303675650752254e-01 -8.0646166701255975e-02 0.0000000000000000e+00  2.1086869643559189e-01 -7.4912097614181425e-03 0.0000000000000000e+00  2.0983472127824204e-01 -5.5577490384047809e-03 0.0000000000000000e+00  2.0677045218139145e-01 -5.4281616481462892e-03 0.0000000000000000e+00  2.0906007350756606e-01 -3.9233947560795073e-03 0.0000000000000000e+00  2.1205660054342515e-01 -3.9971579930939399e-03 0.0000000000000000e+00  2.1122152588397078e-01 -2.5057143733697353e-03 0.0000000000000000e+00  2.0849037916977667e-01 -2.5196775689417363e-03 0.0000000000000000e+00  2.1058880713536471e-01 -1.2396288021894976e-03 0.0000000000000000e+00  2.1327702188504860e-01 -1.1632450346284542e-03 0.0000000000000000e+00  2.1258131363087709e-01 -3.6543297089543131e-05 0.0000000000000000e+00  2.1010689216740763e-01 -1.7795223775038586e-04 0.0000000000000000e+00  2.1204005357674896e-01 9.1336693189614487e-04 0.0000000000000000e+00  2.1449312587832745e-01 1.0939480365209947e-03 0.0000000000000000e+00  2.1391067440019140e-01 1.9265400732816219e-03 0.0000000000000000e+00  2.1160124892050036e-01 1.7152617559169291e-03 0.0000000000000000e+00  2.1342072060602194e-01 2.6320098826796748e-03 0.0000000000000000e+00  2.1569315367996814e-01 2.8802641423048675e-03 0.0000000000000000e+00  2.1518898822391211e-01 3.4825710856784655e-03 0.0000000000000000e+00  2.1303970950660511e-01 3.2044004641667212e-03 0.0000000000000000e+00  2.1476304941884186e-01 3.9800759309416784e-03 0.0000000000000000e+00  2.1686855198425373e-01 4.2859256201925504e-03 0.0000000000000000e+00  2.1643090019245745e-01 4.7055546118068463e-03 0.0000000000000000e+00  2.1443412166477677e-01 4.3695102998063369e-03 0.0000000000000000e+00  2.1606090785580612e-01 5.0406461483203605e-03 0.0000000000000000e+00  2.1801811510638960e-01 5.3927145098544745e-03 0.0000000000000000e+00  2.1763665923147910e-01 5.6743948195136003e-03 0.0000000000000000e+00  2.1577247674045449e-01 5.2921575790589514e-03 0.0000000000000000e+00  2.1731381949590492e-01 5.8893147380164237e-03 0.0000000000000000e+00  2.1915294520242565e-01 6.2747424052131962e-03 0.0000000000000000e+00  2.1880695698580307e-01 6.4615197472184874e-03 0.0000000000000000e+00  2.1706314568331192e-01 6.0405928677296945e-03 0.0000000000000000e+00  2.1853654066870890e-01 6.5966952764801006e-03 0.0000000000000000e+00  2.2026328709150356e-01 7.0188933670182413e-03 0.0000000000000000e+00  2.1688436226260902e-01 6.1412399966138224e-03 0.0000000000000000e+00  2.1832201316368091e-01 6.6867535038788303e-03 0.0000000000000000e+00  2.1676333288746624e-01 6.1999399541999758e-03 0.0000000000000000e+00  2.1816005394742630e-01 6.7394546595663032e-03 0.0000000000000000e+00  2.1533154939654087e-01 5.6587106410872319e-03 0.0000000000000000e+00  2.2001321159252729e-01 6.7205083504645567e-03 0.0000000000000000e+00  2.3935453616072352e-01 1.3740287485754614e-02 0.0000000000000000e+00  2.1829821870800190e-01 -8.7597452371205392e-02 0.0000000000000000e+00  2.1221790669223564e-01 -9.8082788671717460e-03 0.0000000000000000e+00  2.1329366287360146e-01 6.7203122129568850e-04 0.0000000000000000e+00  1.9921739449795403e-01 -1.0569027442507352e-02 0.0000000000000000e+00  2.1669003449392366e-01 6.2218058262479082e-03 0.0000000000000000e+00  2.1805800754484225e-01 6.7666831542494161e-03 0.0000000000000000e+00  2.1954068714337374e-01 7.2911464621415708e-03 0.0000000000000000e+00  2.1666481647082614e-01 6.2148742099103170e-03 0.0000000000000000e+00  1.9080997689745249e-01 -1.7086464157911721e-02 0.0000000000000000e+00  2.6154459226049348e-01 -5.0956152410948322e-02 0.0000000000000000e+00  1.9400942485294478e-01 -2.4932860115994274e-02 0.0000000000000000e+00  2.1800061138714744e-01 6.7711068322822976e-03 0.0000000000000000e+00  2.1668427085509209e-01 6.1852143946478115e-03 0.0000000000000000e+00  2.1537225016891556e-01 5.6378635585918593e-03 0.0000000000000000e+00  1.9577995948013988e-01 -1.6666652289138049e-03 0.0000000000000000e+00  2.3649966163376518e-01 1.7089386531111330e-02 0.0000000000000000e+00  2.1547083102852474e-01 5.5747288942292368e-03 0.0000000000000000e+00  2.1798743814990126e-01 6.7593449605802287e-03 0.0000000000000000e+00  2.1419244396191847e-01 5.0396445931193551e-03 0.0000000000000000e+00  2.1437187048737424e-01 4.9436235786133277e-03 0.0000000000000000e+00  1.9657287132578885e-01 -1.0958431267235339e-02 0.0000000000000000e+00  2.4598577553876461e-01 -7.7738645451797067e-02 0.0000000000000000e+00  1.9586650247080470e-01 -9.9053706260296984e-02 0.0000000000000000e+00  2.1313576382158775e-01 4.4241356078789876e-03 0.0000000000000000e+00  2.1339676430551555e-01 4.2952949750545161e-03 0.0000000000000000e+00  2.1458770385892353e-01 4.8257593564847226e-03 0.0000000000000000e+00  2.1577389820607362e-01 8.2509398773775329e-04 0.0000000000000000e+00  2.1220981060761634e-01 3.7943680141896848e-03 0.0000000000000000e+00  2.1190083662850262e-01 3.9274522875202859e-03 0.0000000000000000e+00  2.1369256085273125e-01 4.1428049734365726e-03 0.0000000000000000e+00  2.1484025130125561e-01 4.6894820446509852e-03 0.0000000000000000e+00  1.7294558903458779e-01 -5.0361830495023817e-02 0.0000000000000000e+00  2.1102827075843689e-01 3.3179590852103111e-03 0.0000000000000000e+00  2.1066896880063485e-01 3.4494276100045553e-03 0.0000000000000000e+00  2.1402237761438858e-01 3.9689048242593202e-03 0.0000000000000000e+00  2.1512860356237393e-01 4.5356898297340608e-03 0.0000000000000000e+00  2.1599684061314978e-01 5.2803717750567730e-03 0.0000000000000000e+00  2.1624762013837584e-01 5.1542962644476652e-03 0.0000000000000000e+00  2.1716346689440927e-01 5.9244226477439292e-03 0.0000000000000000e+00  2.1545267355446140e-01 4.3631210500574402e-03 0.0000000000000000e+00  2.1738126842710229e-01 5.8348398490885587e-03 0.0000000000000000e+00  2.1834059218610996e-01 6.6315053861075194e-03 0.0000000000000000e+00  2.1887423620417876e-01 4.3856733172767158e-03 0.0000000000000000e+00  2.6260514910326971e-01 -6.2360067093255832e-02 0.0000000000000000e+00  2.2485432597468383e-01 1.1903848876697244e-02 0.0000000000000000e+00  2.4943249381509294e-01 -9.8222285249356146e-03 0.0000000000000000e+00  2.5558418055077403e-01 -2.4627288174268902e-02 0.0000000000000000e+00  2.3868273089880424e-01 7.6225001100963426e-03 0.0000000000000000e+00  2.4184071684374572e-01 2.4224945560765375e-03 0.0000000000000000e+00  1.9680326679105606e-01 -5.3163221729868825e-04 0.0000000000000000e+00  2.3828749663635060e-01 1.0341568917908335e-02 0.0000000000000000e+00  2.2996021878970149e-01 1.4879884594921275e-02 0.0000000000000000e+00  1.9674143518686563e-01 -2.0421736214780864e-03 0.0000000000000000e+00  2.4032461362505078e-01 1.5616162428663398e-02 0.0000000000000000e+00  2.3885237295311124e-01 1.7614112822952506e-02 0.0000000000000000e+00  2.0007420555805483e-01 3.9866265574641367e-05 0.0000000000000000e+00  2.0503549009334829e-01 3.9405519520419632e-04 0.0000000000000000e+00  2.0879631524253317e-01 5.2835714494199983e-04 0.0000000000000000e+00  2.1446823894070835e-01 -7.8583331871692821e-03 0.0000000000000000e+00  2.1611021961037749e-01 -1.0357570041146609e-02 0.0000000000000000e+00  2.1817520819739039e-01 -8.3020012014353162e-03 0.0000000000000000e+00  2.2004443066833484e-01 -1.0976597455193101e-02 0.0000000000000000e+00  2.2192334912631512e-01 -8.8006743124837278e-03 0.0000000000000000e+00  2.2396081176931945e-01 -1.1612918734558348e-02 0.0000000000000000e+00  2.2218601884109054e-01 -1.4100296288808267e-02 0.0000000000000000e+00  2.2565868193975647e-01 -9.3242294157274228e-03 0.0000000000000000e+00  2.2622396735121567e-01 -1.4862050329813723e-02 0.0000000000000000e+00  2.2455779876900334e-01 -1.7683210025260857e-02 0.0000000000000000e+00  2.2868092413283478e-01 -1.8554774908190016e-02 0.0000000000000000e+00  2.2712981315393155e-01 -2.1774024264372981e-02 0.0000000000000000e+00  2.3128460678936458e-01 -2.26904813605