<?xml version="1.0"?>
<VTKFile type="UnstructuredGrid"  version="0.1"  >
<UnstructuredGrid>
<Piece  NumberOfPoints="1703" NumberOfCells="3209">
<Points>
<DataArray  type="Float64"  NumberOfComponents="3"  format="ascii">0 0 0  15 0 0  15 5.526628167072649 0  25.57917671879608 5.526628167072649 0  25.88408962323442 3.040146472051724 0  34.81842670065694 8.652089637369833 0  34.81842670065694 12.5 0  0 12.5 0  0.5 0 0  1 0 0  1.5 0 0  2 0 0  2.5 0 0  3 0 0  3.5 0 0  4 0 0  4.5 0 0  5 0 0  5.5 0 0  6 0 0  6.5 0 0  7 0 0  7.5 0 0  8 0 0  8.5 0 0  9 0 0  9.5 0 0  10 0 0  10.5 0 0  11 0 0  11.5 0 0  12 0 0  12.5 0 0  13 0 0  13.5 0 0  14 0 0  14.5 0 0  15 0.460552347256054 0  15 0.9211046945121081 0  15 1.381657041768162 0  15 1.842209389024216 0  15 2.30276173628027 0  15 2.763314083536324 0  15 3.223866430792378 0  15 3.684418778048432 0  15 4.144971125304487 0  15 4.605523472560541 0  15 5.066075819816595 0  15.48087166903619 5.526628167072649 0  15.96174333807237 5.526628167072649 0  16.44261500710856 5.526628167072649 0  16.92348667614474 5.526628167072649 0  17.40435834518093 5.526628167072649 0  17.88523001421711 5.526628167072649 0  18.3661016832533 5.526628167072649 0  18.84697335228948 5.526628167072649 0  19.32784502132567 5.526628167072649 0  19.80871669036186 5.526628167072649 0  20.28958835939804 5.526628167072649 0  20.77046002843422 5.526628167072649 0  21.25133169747041 5.526628167072649 0  21.7322033665066 5.526628167072649 0  22.21307503554278 5.526628167072649 0  22.69394670457897 5.526628167072649 0  23.17481837361515 5.526628167072649 0  23.65569004265134 5.526628167072649 0  24.13656171168752 5.526628167072649 0  24.61743338072371 5.526628167072649 0  25.09830504975989 5.526628167072649 0  25.62999553620247 5.112214551235828 0  25.68081435360886 4.697800935399007 0  25.73163317101525 4.283387319562186 0  25.78245198842164 3.868973703725366 0  25.83327080582803 3.454560087888545 0  26.29019585402635 3.295234797748002 0  26.69630208481828 3.550323123444279 0  27.10240831561022 3.805411449140557 0  27.50851454640215 4.060499774836835 0  27.91462077719408 4.315588100533112 0  28.32072700798602 4.57067642622939 0  28.72683323877795 4.825764751925668 0  29.13293946956988 5.080853077621946 0  29.53904570036181 5.335941403318223 0  29.94515193115375 5.591029729014501 0  30.35125816194568 5.846118054710779 0  30.75736439273761 6.101206380407056 0  31.16347062352954 6.356294706103334 0  31.56957685432148 6.611383031799612 0  31.97568308511341 6.86647135749589 0  32.38178931590534 7.121559683192167 0  32.78789554669728 7.376648008888445 0  33.19400177748921 7.631736334584723 0  33.60010800828114 7.886824660281 0  34.00621423907307 8.141912985977278 0  34.41232046986501 8.397001311673556 0  34.81842670065694 9.133078432698603 0  34.81842670065694 9.614067228027375 0  34.81842670065694 10.09505602335615 0  34.81842670065694 10.57604481868492 0  34.81842670065694 11.05703361401369 0  34.81842670065694 11.53802240934246 0  34.81842670065694 12.01901120467123 0  34.32102060493327 12.5 0  33.8236145092096 12.5 0  33.32620841348593 12.5 0  32.82880231776226 12.5 0  32.33139622203859 12.5 0  31.83399012631492 12.5 0  31.33658403059125 12.5 0  30.83917793486758 12.5 0  30.34177183914391 12.5 0  29.84436574342024 12.5 0  29.34695964769656 12.5 0  28.8495535519729 12.5 0  28.35214745624922 12.5 0  27.85474136052555 12.5 0  27.35733526480188 12.5 0  26.85992916907821 12.5 0  26.36252307335454 12.5 0  25.86511697763087 12.5 0  25.3677108819072 12.5 0  24.87030478618353 12.5 0  24.37289869045986 12.5 0  23.87549259473619 12.5 0  23.37808649901252 12.5 0  22.88068040328885 12.5 0  22.38327430756518 12.5 0  21.8858682118415 12.5 0  21.38846211611784 12.5 0  20.89105602039417 12.5 0  20.39364992467049 12.5 0  19.89624382894682 12.5 0  19.39883773322315 12.5 0  18.90143163749948 12.5 0  18.40402554177581 12.5 0  17.90661944605214 12.5 0  17.40921335032847 12.5 0  16.9118072546048 12.5 0  16.41440115888113 12.5 0  15.91699506315746 12.5 0  15.41958896743379 12.5 0  14.92218287171012 12.5 0  14.42477677598645 12.5 0  13.92737068026278 12.5 0  13.42996458453911 12.5 0  12.93255848881543 12.5 0  12.43515239309177 12.5 0  11.93774629736809 12.5 0  11.44034020164442 12.5 0  10.94293410592075 12.5 0  10.44552801019708 12.5 0  9.948121914473411 12.5 0  9.450715818749742 12.5 0  8.95330972302607 12.5 0  8.455903627302401 12.5 0  7.958497531578729 12.5 0  7.46109143585506 12.5 0  6.963685340131388 12.5 0  6.466279244407719 12.5 0  5.968873148684047 12.5 0  5.471467052960378 12.5 0  4.974060957236706 12.5 0  4.476654861513037 12.5 0  3.979248765789364 12.5 0  3.481842670065696 12.5 0  2.984436574342023 12.5 0  2.487030478618351 12.5 0  1.989624382894682 12.5 0  1.492218287171013 12.5 0  0.9948121914473376 12.5 0  0.4974060957236688 12.5 0  0 12 0  0 11.5 0  0 11 0  0 10.5 0  0 10 0  0 9.5 0  0 9 0  0 8.5 0  0 8 0  0 7.5 0  0 7 0  0 6.5 0  0 6 0  0 5.5 0  0 5 0  0 4.5 0  0 4 0  0 3.5 0  0 3 0  0 2.5 0  0 2 0  0 1.5 0  0 1 0  0 0.5 0  6.714982292269553 12.06923368510607 0  8.75 0.4330127018922196 0  9.202012770887906 12.06923368510607 0  6.201794889612664 0.4511441630255479 0  0.395234149929955 6.25000040232599 0  14.62284157391179 5.276528376138808 0  4.725357909374871 12.06923368510607 0  11.19163715378259 12.06923368510607 0  0.3987967185696952 4.252419747507278 0  10.75863883028246 0.4519865688997413 0  27.55484878671339 12.06878509894882 0  14.60381198880031 5.754938538261874 0  14.21494857697204 5.503008087080959 0  0.3991192743996113 8.270375184864555 0  4.280331642840171 0.4455097119599634 0  14.20167855761932 5.986877682159759 0  13.79782495615964 5.753703966516785 0  25.33655596874132 5.917865827563145 0  29.51252772895233 5.860689392827805 0  17.21139306586977 5.946592844513019 0  19.08740918680758 5.943075248418208 0  21.01089586295232 5.943075248418208 0  22.92440910632477 5.947470901846515 0  13.79552312253731 6.224158601636807 0  13.38852165742135 5.991479924790173 0  14.20052572665971 6.459037283961749 0  24.65918412334469 12.08563010948939 0  16.22805456726876 12.09633429562364 0  18.21193177307149 12.0996253443448 0  20.1966555079634 12.10243439368625 0  13.39006636130526 6.462092919837765 0  12.97923465898335 6.226426170000933 0  22.18108925116137 12.08270618760838 0  31.16511748837172 6.812764357050056 0  12.98011044276857 5.75406585654419 0  12.56916764408505 5.98906695267483 0  12.5683488192125 6.463776281814559 0  12.15636388392041 6.225650548015175 0  12.15585588320555 6.70240073365832 0  11.74208869436343 6.463301385388935 0  11.74357857170849 5.984928103951399 0  11.32787164751153 6.223901559410795 0  11.32664679884676 6.70238612649864 0  10.9109306603772 6.461879673209698 0  10.91277892876227 5.983481909611827 0  10.49389374260479 6.220936772528725 0  10.49271689224318 6.70129719229565 0  10.0752107072425 6.461302263574739 0  10.07681153998002 5.979747816382782 0  9.656376470732186 6.218891989781949 0  9.656548581650325 6.704414348034641 0  9.235716741721168 6.460670913692763 0  9.236556677046392 5.974755957075226 0  8.814739416536435 6.216922093280677 0  8.816444314988383 5.730846524136073 0  8.393621432668741 5.973307059689575 0  8.392344739917188 6.46036752130085 0  7.970259738176662 6.216395988526416 0  7.969086294990976 6.704376460159988 0  7.545880935960366 6.459084894513257 0  7.550577652232828 5.969880757549178 0  7.12279971551699 6.21420111012586 0  7.121142404633311 6.703752860209303 0  6.691961566237541 6.45063273538818 0  6.69947023548303 5.96548393409506 0  6.255173890450259 6.214843212347155 0  6.270181250895059 6.70349439073826 0  6.271992895715401 5.719560096096264 0  14.64427411161501 2.937205720797675 0  14.17607372812461 12.06923368510607 0  29.59502093601762 12.06954999665339 0  5.844874494155679 5.964692977803886 0  5.846090218445351 5.472182249550224 0  32.75721316686088 7.860819326071854 0  26.08374205631916 12.10504994821982 0  5.426082235322863 5.703494442344713 0  5.421941663051697 5.221742349459469 0  12.6838554409536 12.06923368510607 0  2.735733526480185 12.06923368510607 0  6.279946458878561 5.225080749622746 0  2.720390498972229 0.4457640416042175 0  31.09011825093043 12.06853220355177 0  25.77927071130291 5.919108661604739 0  25.55591473740576 6.310205029908285 0  4.992264356357795 5.467039668917079 0  4.997873253237913 6.016244058882979 0  4.993701703518092 4.974211429543892 0  26.01939419382043 6.308665567545146 0  25.78468689616201 6.706693053863061 0  26.24161084424157 6.706259860058102 0  26.01286265846646 7.106331459735919 0  26.47521746963424 7.105781035999506 0  26.2438652397722 7.508214124555602 0  26.70801560069599 7.507269539407393 0  25.79563727042937 7.513856298876204 0  12.26683433564457 0.4584653003488572 0  26.4764570353893 7.913239432248619 0  26.94370459579043 7.907184014597354 0  4.563030907968121 5.220950008692926 0  4.564055569828195 4.726092472207232 0  4.994941504942467 4.479511535926953 0  0.4479008049014812 9.747739251946209 0  0.3822401099113648 2.75229092768818 0  4.565354767814441 4.230591478401249 0  32.58103009871664 12.06974269200005 0  26.71025661382873 8.320011138142172 0  27.18267866474225 8.314407346951572 0  4.134106002209188 4.972865404035035 0  4.995960665735788 3.983775105114269 0  34.40317892407343 9.847321300241802 0  26.94656661482416 8.729046644609022 0  27.42030195872897 8.729354690624284 0  26.47222545880561 8.728913139213475 0  4.566380667536897 3.734463827130452 0  27.65724447012466 8.312339940875084 0  27.89608502054989 8.729394258782028 0  28.13350594201709 8.314985182078345 0  28.37444219701118 8.728934060820155 0  4.997487222225494 3.487388441125565 0  26.70983712287209 9.141176839288075 0  26.23261556841899 9.140063298065234 0  28.13525105831154 9.145189037386853 0  28.6158355366746 9.144439637167928 0  28.85516100428746 8.727334723353838 0  29.09748778865318 9.143180771774015 0  15.80125272029745 5.955143241598819 0  26.94229134420501 7.099002078276261 0  4.567428809981553 3.237798766017267 0  4.13669555160239 3.48483758609
[...]
<PointData  Vectors="u"> 
<DataArray  type="Float64"  Name="u"  NumberOfComponents="3" format="ascii">-8.2200793010436188e-02 5.7329026860680676e-03 0.0000000000000000e+00  -7.3009065070458790e-02 7.5264745432483196e-03 0.0000000000000000e+00  -6.3170273122267737e-02 1.1597353203881696e-02 0.0000000000000000e+00  -1.4594465752337927e-02 1.8412656702603114e-02 0.0000000000000000e+00  1.1541534395641758e-02 2.3074420361278245e-02 0.0000000000000000e+00  -2.9334180833332404e-02 7.3863803783997661e-03 0.0000000000000000e+00  -2.5133532939591127e-02 0.0000000000000000e+00 0.0000000000000000e+00  -8.2696547336075343e-02 0.0000000000000000e+00 0.0000000000000000e+00  -8.1700502344293102e-02 5.7960903304556917e-03 0.0000000000000000e+00  -8.1198865050140998e-02 5.8593715275880118e-03 0.0000000000000000e+00  -8.0695662186211381e-02 5.9247204947748934e-03 0.0000000000000000e+00  -8.0191297354944471e-02 5.9945979408808896e-03 0.0000000000000000e+00  -7.9687099070615816e-02 6.0703481610368823e-03 0.0000000000000000e+00  -7.9184024406421277e-02 6.1537370458461405e-03 0.0000000000000000e+00  -7.8684161571372119e-02 6.2454574977693442e-03 0.0000000000000000e+00  -7.8188348369209085e-02 6.3464428454611081e-03 0.0000000000000000e+00  -7.7698241199397874e-02 6.4573698353117470e-03 0.0000000000000000e+00  -7.7216357565475027e-02 6.5782965365635687e-03 0.0000000000000000e+00  -7.6743837510747245e-02 6.7098114059147779e-03 0.0000000000000000e+00  -7.6284422844246427e-02 6.8513306868805803e-03 0.0000000000000000e+00  -7.5839456039034261e-02 7.0030414545395022e-03 0.0000000000000000e+00  -7.5412840337731296e-02 7.1630015378391591e-03 0.0000000000000000e+00  -7.5007877419729058e-02 7.3307890468635407e-03 0.0000000000000000e+00  -7.4626353570319576e-02 7.5046168813635364e-03 0.0000000000000000e+00  -7.4275334979578042e-02 7.6821098342452522e-03 0.0000000000000000e+00  -7.3955919791242331e-02 7.8569827951012576e-03 0.0000000000000000e+00  -7.3674700167806542e-02 8.0227948995855031e-03 0.0000000000000000e+00  -7.3436583330631147e-02 8.1890675889995171e-03 0.0000000000000000e+00  -7.3236080028561759e-02 8.3256347379896262e-03 0.0000000000000000e+00  -7.3085939518836435e-02 8.4372833622669199e-03 0.0000000000000000e+00  -7.2982342551462298e-02 8.5093556868971222e-03 0.0000000000000000e+00  -7.2925665885844537e-02 8.5366992289283485e-03 0.0000000000000000e+00  -7.2907653823128332e-02 8.5063258508810170e-03 0.0000000000000000e+00  -7.2922019478043748e-02 8.4123022904633634e-03 0.0000000000000000e+00  -7.2951555759126208e-02 8.2523363345778315e-03 0.0000000000000000e+00  -7.2984603840358722e-02 8.0381859146957443e-03 0.0000000000000000e+00  -7.3004444661186677e-02 7.7858800119193650e-03 0.0000000000000000e+00  -7.2779105464763585e-02 7.5229058858932701e-03 0.0000000000000000e+00  -7.2543546465380526e-02 7.5060430213167439e-03 0.0000000000000000e+00  -7.2280440953460340e-02 7.4732550365020078e-03 0.0000000000000000e+00  -7.1969452212729823e-02 7.4385052193000935e-03 0.0000000000000000e+00  -7.1581575245775936e-02 7.4017028757050402e-03 0.0000000000000000e+00  -7.1108620525117294e-02 7.3896797519377158e-03 0.0000000000000000e+00  -7.0519163792693754e-02 7.4176954484353576e-03 0.0000000000000000e+00  -6.9786936879390346e-02 7.5227276791324056e-03 0.0000000000000000e+00  -6.8857148928438722e-02 7.7552962810170318e-03 0.0000000000000000e+00  -6.7650423131130510e-02 8.2341273793353851e-03 0.0000000000000000e+00  -6.6031406568462486e-02 9.2685505066627018e-03 0.0000000000000000e+00  -6.0217484326915045e-02 1.6909791202427811e-02 0.0000000000000000e+00  -5.8699973606966681e-02 1.8846612035521581e-02 0.0000000000000000e+00  -5.7487817302379771e-02 2.0048943495329881e-02 0.0000000000000000e+00  -5.6274864374489468e-02 2.0802008754297666e-02 0.0000000000000000e+00  -5.5083732904813928e-02 2.1324372220521831e-02 0.0000000000000000e+00  -5.3876824766255937e-02 2.1679602724264703e-02 0.0000000000000000e+00  -5.2638325229119376e-02 2.1924770622971847e-02 0.0000000000000000e+00  -5.1364243074040042e-02 2.2077288007284795e-02 0.0000000000000000e+00  -5.0042788702672661e-02 2.2164968708430717e-02 0.0000000000000000e+00  -4.8671722483414635e-02 2.2192922881834824e-02 0.0000000000000000e+00  -4.7238527233240922e-02 2.2174610445800311e-02 0.0000000000000000e+00  -4.5735479243104039e-02 2.2114131839867594e-02 0.0000000000000000e+00  -4.4154514085051305e-02 2.2015061950878771e-02 0.0000000000000000e+00  -4.2470267175234916e-02 2.1879035998000097e-02 0.0000000000000000e+00  -4.0671987085171293e-02 2.1713415591755703e-02 0.0000000000000000e+00  -3.8718722420256799e-02 2.1489974469050873e-02 0.0000000000000000e+00  -3.6565299640603142e-02 2.1234104758680816e-02 0.0000000000000000e+00  -3.4130995991841676e-02 2.0925423666781608e-02 0.0000000000000000e+00  -3.1295761596959931e-02 2.0538456455383727e-02 0.0000000000000000e+00  -2.7729878229079477e-02 2.0022622019153506e-02 0.0000000000000000e+00  -2.2769685743146615e-02 1.9401343982975872e-02 0.0000000000000000e+00  -9.4584714362914133e-04 1.7462502288656711e-02 0.0000000000000000e+00  2.9807761357476697e-03 1.8337741071460429e-02 0.0000000000000000e+00  5.6636216895039173e-03 1.9349401556919759e-02 0.0000000000000000e+00  7.8190912859280384e-03 2.0397751225882617e-02 0.0000000000000000e+00  9.7478595337724579e-03 2.1591801520296525e-02 0.0000000000000000e+00  8.8840372234597394e-03 2.4156371294321941e-02 0.0000000000000000e+00  5.6033498722976756e-03 2.5338065700686932e-02 0.0000000000000000e+00  1.6126658851294993e-03 2.6374324399304122e-02 0.0000000000000000e+00  -2.9391486978618334e-03 2.6979714014628616e-02 0.0000000000000000e+00  -7.4882170588143025e-03 2.6947219069626334e-02 0.0000000000000000e+00  -1.1697163312608408e-02 2.6336280970883301e-02 0.0000000000000000e+00  -1.5389592263654918e-02 2.5289504985328497e-02 0.0000000000000000e+00  -1.8526279291500296e-02 2.4038395671835973e-02 0.0000000000000000e+00  -2.1167651501839840e-02 2.2648301979047956e-02 0.0000000000000000e+00  -2.3346093759617392e-02 2.1236553305217287e-02 0.0000000000000000e+00  -2.5145259176936215e-02 1.9830855261730642e-02 0.0000000000000000e+00  -2.6618125835454060e-02 1.8468337635539886e-02 0.0000000000000000e+00  -2.7804373724404322e-02 1.7182803509894935e-02 0.0000000000000000e+00  -2.8754373374301298e-02 1.5961884772695164e-02 0.0000000000000000e+00  -2.9478152505640474e-02 1.4813165523368473e-02 0.0000000000000000e+00  -3.0025150045100760e-02 1.3765498871839020e-02 0.0000000000000000e+00  -3.0396137561086167e-02 1.2732576297590614e-02 0.0000000000000000e+00  -3.0629205316389161e-02 1.1796779177680065e-02 0.0000000000000000e+00  -3.0691842787982114e-02 1.0832628362668384e-02 0.0000000000000000e+00  -3.0590990565533341e-02 9.8858725700471575e-03 0.0000000000000000e+00  -3.0239601529383479e-02 8.8371385006385528e-03 0.0000000000000000e+00  -2.7605313832818862e-02 6.5024645990884485e-03 0.0000000000000000e+00  -2.6633842990392030e-02 5.7188417557780796e-03 0.0000000000000000e+00  -2.6020993675721506e-02 4.9025352257463474e-03 0.0000000000000000e+00  -2.5632824817770974e-02 4.0229717553785056e-03 0.0000000000000000e+00  -2.5381855722246608e-02 3.0722946423727636e-03 0.0000000000000000e+00  -2.5233018724048914e-02 2.0828433411632700e-03 0.0000000000000000e+00  -2.5158050020444151e-02 1.0528502918099017e-03 0.0000000000000000e+00  -2.5590835260191815e-02 0.0000000000000000e+00 0.0000000000000000e+00  -2.6089060772799336e-02 0.0000000000000000e+00 0.0000000000000000e+00  -2.6653253089880036e-02 0.0000000000000000e+00 0.0000000000000000e+00  -2.7281245187419409e-02 0.0000000000000000e+00 0.0000000000000000e+00  -2.7971203352422244e-02 0.0000000000000000e+00 0.0000000000000000e+00  -2.8719245862605589e-02 0.0000000000000000e+00 0.0000000000000000e+00  -2.9521783107987185e-02 0.0000000000000000e+00 0.0000000000000000e+00  -3.0373943465816781e-02 0.0000000000000000e+00 0.0000000000000000e+00  -3.1270554873056487e-02 0.0000000000000000e+00 0.0000000000000000e+00  -3.2205320019227671e-02 0.0000000000000000e+00 0.0000000000000000e+00  -3.3171761230000235e-02 0.0000000000000000e+00 0.0000000000000000e+00  -3.4159739882619215e-02 0.0000000000000000e+00 0.0000000000000000e+00  -3.5160151129678727e-02 0.0000000000000000e+00 0.0000000000000000e+00  -3.6163376682606788e-02 0.0000000000000000e+00 0.0000000000000000e+00  -3.7155684788548263e-02 0.0000000000000000e+00 0.0000000000000000e+00  -3.8131801916949454e-02 0.0000000000000000e+00 0.0000000000000000e+00  -3.9090131231282639e-02 0.0000000000000000e+00 0.0000000000000000e+00  -4.0030281833133216e-02 0.0000000000000000e+00 0.0000000000000000e+00  -4.0954602665987619e-02 0.0000000000000000e+00 0.0000000000000000e+00  -4.1870340618591746e-02 0.0000000000000000e+00 0.0000000000000000e+00  -4.2784925229558755e-02 0.0000000000000000e+00 0.0000000000000000e+00  -4.3708941676415890e-02 0.0000000000000000e+00 0.0000000000000000e+00  -4.4652029038306874e-02 0.0000000000000000e+00 0.0000000000000000e+00  -4.5623854130472118e-02 0.0000000000000000e+00 0.0000000000000000e+00  -4.6631114942544794e-02 0.0000000000000000e+00 0.0000000000000000e+00  -4.7678192218172814e-02 0.0000000000000000e+00 0.0000000000000000e+00  -4.8766123590882046e-02 0.0000000000000000e+00 0.0000000000000000e+00  -4.9893494983901381e-02 0.0000000000000000e+00 0.0000000000000000e+00  -5.1056436278359291e-02 0.0000000000000000e+00 0.0000000000000000e+00  -5.2248970544153249e-02 0.0000000000000000e+00 0.0000000000000000e+00  -5.3463832711912289e-02 0.0000000000000000e+00 0.0000000000000000e+00  -5.4691443627254498e-02 0.0000000000000000e+00 0.0000000000000000e+00  -5.5922824318293936e-02 0.0000000000000000e+00 0.0000000000000000e+00  -5.7146083995094230e-02 0.0000000000000000e+00 0.0000000000000000e+00  -5.8352328420889693e-02 0.0000000000000000e+00 0.0000000000000000e+00  -5.9529158075485041e-02 0.0000000000000000e+00 0.0000000000000000e+00  -6.0670056841045608e-02 0.0000000000000000e+00 0.0000000000000000e+00  -6.1764831106635186e-02 0.0000000000000000e+00 0.0000000000000000e+00  -6.2810356914122276e-02 0.0000000000000000e+00 0.0000000000000000e+00  -6.3798026695879834e-02 0.0000000000000000e+00 0.0000000000000000e+00  -6.4731631597651398e-02 0.0000000000000000e+00 0.0000000000000000e+00  -6.5618673994609369e-02 0.0000000000000000e+00 0.0000000000000000e+00  -6.6455349212708362e-02 0.0000000000000000e+00 0.0000000000000000e+00  -6.7256733075098774e-02 0.0000000000000000e+00 0.0000000000000000e+00  -6.8015171272757927e-02 0.0000000000000000e+00 0.0000000000000000e+00  -6.8741162566691605e-02 0.0000000000000000e+00 0.0000000000000000e+00  -6.9445752882754647e-02 0.0000000000000000e+00 0.0000000000000000e+00  -7.0124397989497114e-02 0.0000000000000000e+00 0.0000000000000000e+00  -7.0784970703748562e-02 0.0000000000000000e+00 0.0000000000000000e+00  -7.1430733371848118e-02 0.0000000000000000e+00 0.0000000000000000e+00  -7.2063707861832763e-02 0.0000000000000000e+00 0.0000000000000000e+00  -7.2685320949748250e-02 0.0000000000000000e+00 0.0000000000000000e+00  -7.3295268666498936e-02 0.0000000000000000e+00 0.0000000000000000e+00  -7.3897545858509994e-02 0.0000000000000000e+00 0.0000000000000000e+00  -7.4490962968941657e-02 0.0000000000000000e+00 0.0000000000000000e+00  -7.5076782509817849e-02 0.0000000000000000e+00 0.0000000000000000e+00  -7.5654976599656462e-02 0.0000000000000000e+00 0.0000000000000000e+00  -7.6226392282559632e-02 0.0000000000000000e+00 0.0000000000000000e+00  -7.6791006343325280e-02 0.0000000000000000e+00 0.0000000000000000e+00  -7.7349615173803676e-02 0.0000000000000000e+00 0.0000000000000000e+00  -7.7902242673937680e-02 0.0000000000000000e+00 0.0000000000000000e+00  -7.8449657781561918e-02 0.0000000000000000e+00 0.0000000000000000e+00  -7.8992000891757341e-02 0.0000000000000000e+00 0.0000000000000000e+00  -7.9530029373316449e-02 0.0000000000000000e+00 0.0000000000000000e+00  -8.0064047324776191e-02 0.0000000000000000e+00 0.0000000000000000e+00  -8.0594812369176067e-02 0.0000000000000000e+00 0.0000000000000000e+00  -8.1122808745924244e-02 0.0000000000000000e+00 0.0000000000000000e+00  -8.1648516024641640e-02 0.0000000000000000e+00 0.0000000000000000e+00  -8.2172855331622371e-02 0.0000000000000000e+00 0.0000000000000000e+00  -8.2696835016896050e-02 2.6588541147273110e-04 0.0000000000000000e+00  -8.2697502523083583e-02 5.3126603600581461e-04 0.0000000000000000e+00  -8.2698096084248454e-02 7.9579727967929480e-04 0.0000000000000000e+00  -8.2699259831817876e-02 1.0590114013470729e-03 0.0000000000000000e+00  -8.2700897704001367e-02 1.3202884890238728e-03 0.0000000000000000e+00  -8.2702224675112554e-02 1.5791170725877367e-03 0.0000000000000000e+00  -8.2703308609579640e-02 1.8351788432619126e-03 0.0000000000000000e+00  -8.2704332902748132e-02 2.0878006350746924e-03 0.0000000000000000e+00  -8.2705300365943826e-02 2.3364208929035806e-03 0.0000000000000000e+00  -8.2704489491881000e-02 2.5809756697675553e-03 0.0000000000000000e+00  -8.2702555350737506e-02 2.8204736536141910e-03 0.0000000000000000e+00  -8.2697950425198674e-02 3.0549192501824526e-03 0.0000000000000000e+00  -8.2691043813187107e-02 3.2839386147478227e-03 0.0000000000000000e+00  -8.2680711114107519e-02 3.5070070549186811e-03 0.0000000000000000e+00  -8.2665106328530691e-02 3.7249335087405134e-03 0.0000000000000000e+00  -8.2644735164498689e-02 3.9373953690982543e-03 0.0000000000000000e+00  -8.2618336576719423e-02 4.1450703903142920e-03 0.0000000000000000e+00  -8.2585717310939846e-02 4.3484085333836712e-03 0.0000000000000000e+00  -8.2546397395917778e-02 4.5483300615513323e-03 0.0000000000000000e+00  -8.2500396241227139e-02 4.7457912067178174e-03 0.0000000000000000e+00  -8.2448030320884380e-02 4.9419578148995336e-03 0.0000000000000000e+00  -8.2390435118563130e-02 5.1380359875466686e-03 0.0000000000000000e+00  -8.2328725429054492e-02 5.3347542710293462e-03 0.0000000000000000e+00  -8.2264855000145451e-02 5.5331948565596981e-03 0.0000000000000000e+00  -7.5368088738098443e-02 2.9194472509346285e-04 0.0000000000000000e+00  -7.4229777607765599e-02 7.6560238181751341e-03 0.0000000000000000e+00  -7.2375950829135588e-02 3.4686532438012304e-04 0.0000000000000000e+00  -7.6222401474825993e-02 6.7501246612778187e-03 0.0000000000000000e+00  -8.2289975028479068e-02 3.1798685559134778e-03 0.0000000000000000e+00  -6.4784936865425219e-02 9.9343348238895499e-03 0.0000000000000000e+00  -7.7627954837581295e-02 2.6156673594074901e-04 0.0000000000000000e+00  -6.9787406753656703e-02 4.2544849348320545e-04 0.0000000000000000e+00  -8.2230588698842338e-02 4.0651746556336407e-03 0.0000000000000000e+00  -7.3206706279921291e-02 8.3297539914399255e-03 0.0000000000000000e+00  -3.6726744906296051e-02 1.5231445132496422e-03 0.0000000000000000e+00  -6.4126127807811253e-02 9.8361781274799200e-03 0.0000000000000000e+00  -6.5225206563344101e-02 9.1320582446308262e-03 0.0000000000000000e+00  -8.2289787482055191e-02 2.2052934546330704e-03 0.0000000000000000e+00  -7.8005182284287961e-02 6.2336692981786249e-03 0.0000000000000000e+00  -6.4920446980012966e-02 8.8033832780603938e-03 0.0000000000000000e+00  -6.5831878276302325e-02 8.3633717635516851e-03 0.0000000000000000e+00  -2.3368703214487311e-02 1.6499298810541577e-02 0.0000000000000000e+00  -2.2866285424053522e-02 2.2055822930970848e-02 0.0000000000000000e+00  -5.6053776348598615e-02 1.9610158686780493e-02 0.0000000000000000e+00  -5.0835215918103228e-02 2.0667964916459999e-02 0.0000000000000000e+00  -4.4944503876857722e-02 2.0522877474145027e-02 0.0000000000000000e+00  -3.7694460473039315e-02 1.9572280221495028e-02 0.0000000000000000e+00  -6.5653453464457917e-02 7.9816092008203245e-03 0.0000000000000000e+00  -6.6464985957865541e-02 7.6940657469870121e-03 0.0000000000000000e+00  -6.4955944889459202e-02 8.4818941529042607e-03 0.0000000000000000e+00  -4.2218678091729321e-02 1.1513086400653711e-03 0.0000000000000000e+00  -6.1082265784853318e-02 8.9946457395344596e-04 0.0000000000000000e+00  -5.6384542988391295e-02 1.0695254766502022e-03 0.0000000000000000e+00  -5.1501959917297217e-02 1.1012236361209614e-03 0.0000000000000000e+00  -6.6341645900586957e-02 7.2801433966942419e-03 0.0000000000000000e+00  -6.7097725245290341e-02 7.0905198801390909e-03 0.0000000000000000e+00  -4.7014198659203484e-02 1.1113713857999010e-03 0.0000000000000000e+00  -2.8059181733792207e-02 1.6645161807778919e-02 0.0000000000000000e+00  -6.7328095808518257e-02 7.5176423165480384e-03 0.0000000000000000e+00  -6.7884298325771045e-02 6.9749546461228750e-03 0.0000000000000000e+00  -6.7719690880095246e-02 6.5363541347087644e-03 0.0000000000000000e+00  -6.8453046845258561e-02 6.4663155892359311e-03 0.0000000000000000e+00  -6.8330745865179995e-02 6.0245797106078499e-03 0.0000000000000000e+00  -6.9024162762153118e-02 5.9902346400852778e-03 0.0000000000000000e+00  -6.9185671319245676e-02 6.4208739454522535e-03 0.0000000000000000e+00  -6.9715725155657354e-02 5.9713505438418069e-03 0.0000000000000000e+00  -6.9592690210709393e-02 5.5443656951748846e-03 0.0000000000000000e+00  -7.0252031079592214e-02 5.5487620527175738e-03 0.0000000000000000e+00  -7.0394879658958895e-02 5.9584003975394076e-03 0.0000000000000000e+00  -7.0901990859633682e-02 5.5552022481533290e-03 0.0000000000000000e+00  -7.0789320601323091e-02 5.1498131911306404e-03 0.0000000000000000e+00  -7.1412457724007963e-02 5.1717616455484606e-03 0.0000000000000000e+00  -7.1535011087924080e-02 5.5599957285395636e-03 0.0000000000000000e+00  -7.2023542610260075e-02 5.1918180268103039e-03 0.0000000000000000e+00  -7.1923159757910443e-02 4.8076067753102091e-03 0.0000000000000000e+00  -7.2515642878460032e-02 4.8408571767657874e-03 0.0000000000000000e+00  -7.2618827222855384e-02 5.2076572086248831e-03 0.0000000000000000e+00  -7.3093297778040661e-02 4.8682541317838926e-03 0.0000000000000000e+00  -7.3195101878973809e-02 5.2174102112457956e-03 0.0000000000000000e+00  -7.3654437768599396e-02 4.8893838348807858e-03 0.0000000000000000e+00  -7.3571635182008516e-02 4.5450927551437285e-03 0.0000000000000000e+00  -7.4119317099565027e-02 4.5767767702534620e-03 0.0000000000000000e+00  -7.4052252019447193e-02 4.2382237140539793e-03 0.0000000000000000e+00  -7.4588279946800826e-02 4.2799860743708909e-03 0.0000000000000000e+00  -7.4649388655314106e-02 4.6050020225311553e-03 0.0000000000000000e+00  -7.5110675590136497e-02 4.3156495229864983e-03 0.0000000000000000e+00  -7.5058523936655755e-02 3.9971041840938795e-03 0.0000000000000000e+00  -7.5578394944888314e-02 4.0452566425628099e-03 0.0000000000000000e+00  -7.5620410022998547e-02 4.3488616544526699e-03 0.0000000000000000e+00  -7.6093250641976098e-02 4.0761804919318230e-03 0.0000000000000000e+00  -7.6034912077689823e-02 3.7815304239653402e-03 0.0000000000000000e+00  -7.6120753397797211e-02 4.3753148427299595e-03 0.0000000000000000e+00  -7.0887458190601993e-02 7.7988642980515444e-03 0.0000000000000000e+00  -6.5188413197905998e-02 6.8963988218457141e-04 0.0000000000000000e+00  -3.2661364040724679e-02 1.6154203573760944e-03 0.0000000000000000e+00  -7.6567698780853274e-02 4.1194259231803476e-03 0.0000000000000000e+00  -7.6606697044766719e-02 4.4003321241383748e-03 0.0000000000000000e+00  -2.9857533144529751e-02 1.2150268721125452e-02 0.0000000000000000e+00  -3.9588043434164860e-02 1.2345650347206443e-03 0.0000000000000000e+00  -7.7042198213399499e-02 4.1633229178807416e-03 0.0000000000000000e+00  -7.7078300591895049e-02 4.4253870222462034e-03 0.0000000000000000e+00  -6.7641807825198103e-02 5.2997504390057298e-04 0.0000000000000000e+00  -7.9798466210185992e-02 2.4027727971017362e-04 0.0000000000000000e+00  -7.6161575139970961e-02 4.6620097677920920e-03 0.0000000000000000e+00  -7.9537357514118209e-02 5.9273607066337129e-03 0.0000000000000000e+00  -2.9929892612841125e-02 1.5284173130428852e-03 0.0000000000000000e+00  -2.1485850786637579e-02 1.8845641501736350e-02 0.0000000000000000e+00  -2.6450834173771112e-02 1.6633895912546520e-02 0.0000000000000000e+00  -7.7519280657158060e-02 4.1877668349297459e-03 0.0000000000000000e+00  -7.7484430913440705e-02 3.