<?xml version="1.0"?>
<VTKFile type="UnstructuredGrid"  version="0.1"  >
<UnstructuredGrid>
<Piece  NumberOfPoints="1393" NumberOfCells="2614">
<Points>
<DataArray  type="Float64"  NumberOfComponents="3"  format="ascii">50 0 0  20 0 0  20 5.502231057445232 0  24.51372599735333 5.502231057445232 0  26.50288938639398 3.500148731072234 0  35.0065389408972 8.501149981384751 0  35.0065389408972 12.5 0  50 12.5 0  49.5 0 0  49 0 0  48.5 0 0  48 0 0  47.5 0 0  47 0 0  46.5 0 0  46 0 0  45.5 0 0  45 0 0  44.5 0 0  44 0 0  43.5 0 0  43 0 0  42.5 0 0  42 0 0  41.5 0 0  41 0 0  40.5 0 0  40 0 0  39.5 0 0  39 0 0  38.5 0 0  38 0 0  37.5 0 0  37 0 0  36.5 0 0  36 0 0  35.5 0 0  35 0 0  34.5 0 0  34 0 0  33.5 0 0  33 0 0  32.5 0 0  32 0 0  31.5 0 0  31 0 0  30.5 0 0  30 0 0  29.5 0 0  29 0 0  28.5 0 0  28 0 0  27.5 0 0  27 0 0  26.5 0 0  26 0 0  25.5 0 0  25 0 0  24.5 0 0  24 0 0  23.5 0 0  23 0 0  22.5 0 0  22 0 0  21.5 0 0  21 0 0  20.5 0 0  20 0.5002028234041119 0  20 1.000405646808224 0  20 1.500608470212336 0  20 2.000811293616448 0  20 2.50101411702056 0  20 3.001216940424672 0  20 3.501419763828784 0  20 4.001622587232895 0  20 4.501825410637007 0  20 5.002028234041119 0  20.45137259973533 5.502231057445232 0  20.90274519947067 5.502231057445232 0  21.354117799206 5.502231057445232 0  21.80549039894133 5.502231057445232 0  22.25686299867667 5.502231057445232 0  22.708235598412 5.502231057445232 0  23.15960819814733 5.502231057445232 0  23.61098079788266 5.502231057445232 0  24.062353397618 5.502231057445232 0  24.84525322886011 5.168550669716399 0  25.17678046036688 4.834870281987566 0  25.50830769187365 4.501189894258733 0  25.83983492338043 4.1675095065299 0  26.1713621548872 3.833829118801067 0  26.92807186411914 3.75019879358786 0  27.3532543418443 4.000248856103486 0  27.77843681956946 4.250298918619111 0  28.20361929729462 4.500348981134738 0  28.62880177501978 4.750399043650363 0  29.05398425274495 5.000449106165989 0  29.47916673047011 5.250499168681615 0  29.90434920819527 5.50054923119724 0  30.32953168592043 5.750599293712867 0  30.75471416364559 6.000649356228493 0  31.17989664137075 6.250699418744119 0  31.60507911909591 6.500749481259744 0  32.03026159682107 6.75079954377537 0  32.45544407454624 7.000849606290997 0  32.88062655227139 7.250899668806622 0  33.30580902999655 7.500949731322248 0  33.73099150772172 7.750999793837874 0  34.15617398544688 8.0010498563535 0  34.58135646317204 8.251099918869127 0  35.0065389408972 9.001006233711657 0  35.0065389408972 9.500862486038564 0  35.0065389408972 10.00071873836547 0  35.0065389408972 10.50057499069237 0  35.0065389408972 11.00043124301928 0  35.0065389408972 11.50028749534619 0  35.0065389408972 12.00014374767309 0  35.50632097620063 12.5 0  36.00610301150405 12.5 0  36.50588504680748 12.5 0  37.00566708211091 12.5 0  37.50544911741434 12.5 0  38.00523115271776 12.5 0  38.50501318802119 12.5 0  39.00479522332461 12.5 0  39.50457725862804 12.5 0  40.00435929393146 12.5 0  40.5041413292349 12.5 0  41.00392336453832 12.5 0  41.50370539984175 12.5 0  42.00348743514517 12.5 0  42.5032694704486 12.5 0  43.00305150575203 12.5 0  43.50283354105545 12.5 0  44.00261557635888 12.5 0  44.5023976116623 12.5 0  45.00217964696574 12.5 0  45.50196168226916 12.5 0  46.00174371757259 12.5 0  46.50152575287601 12.5 0  47.00130778817944 12.5 0  47.50108982348286 12.5 0  48.0008718587863 12.5 0  48.50065389408972 12.5 0  49.00043592939315 12.5 0  49.50021796469657 12.5 0  50 12 0  50 11.5 0  50 11 0  50 10.5 0  50 10 0  50 9.5 0  50 9 0  50 8.5 0  50 8 0  50 7.5 0  50 7 0  50 6.5 0  50 6 0  50 5.5 0  50 5 0  50 4.5 0  50 4 0  50 3.5 0  50 3 0  50 2.5 0  50 2 0  50 1.5 0  50 1 0  50 0.5 0  43.28110904578536 12.07442291817573 0  40.75582711629258 0.4342335384792158 0  43.74999142547415 0.4330105233018715 0  40.75556900614436 12.0823762034765 0  49.56698729810778 6.25 0  38.25 0.4330127018922196 0  45.28065644546125 12.02440400462687 0  35.00772663050364 8.006887990897779 0  49.6218387168575 4.229007714039767 0  35.43581748837024 8.257957289998409 0  35.43989602296868 7.764274087232486 0  35.86576359534264 8.014475285921211 0  35.86966221058519 7.520680568882837 0  36.29619537355509 7.771043494054798 0  49.56698729810778 8.25 0  36.29836503234328 7.275504056804269 0  36.72688761640136 7.527001935129251 0  32.87563157478488 6.753185327512927 0  45.73244320828166 0.4206361425881111 0  36.73119647017239 7.031745934461084 0  37.15846927015284 7.282955543695912 0  35.22633168345786 0.4134934707071709 0  37.16257369841566 6.786962418664192 0  37.59033500521876 7.03853890693233 0  37.59432752179524 6.542080160461657 0  38.02244710512245 6.793878251798468 0  36.73099406953065 6.533100029709425 0  38.0264133082815 6.297085280525939 0  38.45479145612347 6.549010232667655 0  33.26809159472202 0.5052634110256067 0  38.45879757484539 6.051924593458265 0  38.88739459150003 6.303964108767482 0  31.17028451456365 5.752180668465064 0  38.89138969348758 5.806669319517608 0  39.32017851328468 6.058799712696373 0  39.31497741794064 6.557896664092747 0  39.74887940830788 6.311308056122837 0  39.75297738515224 5.813584208075629 0  40.18194854118772 6.066032786664982 0  40.17698650602406 6.565083749985078 0  40.61111214413593 6.318427386679128 0  40.61551184071754 5.821184806822925 0  41.04467296341485 6.073163702556941 0  41.03961548849897 6.572248908510716 0  41.4739385764688 6.325512331799223 0  41.47859459987276 5.828200143291544 0  41.90776378726657 6.080202818126599 0  41.90270005810311 6.579338152073943 0  42.33719147622058 6.332580139744186 0  42.34193769292143 5.835226801198749 0  42.77122972558058 6.08725387054845 0  42.76619662160861 6.586444154008102 0  43.20085876899257 6.339652352761219 0  43.20541842226764 5.841888942494493 0  43.6350028765502 6.093471571417536 0  43.6309335111798 6.592307171876012 0  38.46263228903034 5.554577918077232 0  43.63947723830078 5.595451911440826 0  44.0691131942169 5.847527772682881 0  23.41776542917537 5.11769562845834 0  31.25 0.4330127018922196 0  37.58608603567716 7.534772270723929 0  44.07319488581415 5.348735547482921 0  44.50322329676446 5.601620046659468 0  47.30731396689509 12.02748471048305 0  36.76397230809223 0.4739815013261524 0  43.64337947145713 5.097451647583211 0  39.25863027456248 12.0788451676502 0  47.2610044510926 0.4192583979184983 0  42.2499534834273 0.4059656067216482 0  44.50715332612832 5.102518502522121 0  29.89116753156248 5.00213999001013 0  22.78694337679399 0.4330581581029831 0  44.93760635163684 5.355511149166565 0  44.93266834424465 5.855633476911172 0  44.94145444820282 4.856257462736965 0  25.38509561510923 4.047238695863126 0  29.81737684779761 0.4797840682558876 0  37.75534013506605 12.06717606107214 0  45.37200944692122 5.109375769265389 0  45.37601985536113 4.610059364701034 0  20.4580749668889 2.756054842982256 0  49.57974435098036 9.750031289085435 0  49.59980691061162 2.714100571683495 0  44.94540944461465 4.356914414473582 0  28.61201164811557 4.251292710265609 0  24.2467976363487 0.4207711544422175 0  45.38004770092763 4.110683634973407 0  35.43274816813987 9.754464626235141 0  45.80648901545655 4.863212175521578 0  28.31835753991529 0.4385625366157768 0  44.9494856814691 3.857504739158123 0  35.43746674173723 7.267210701333144 0  22.01444185633144 5.131971069029126 0  45.38409755225501 3.611230728681827 0  27.35721280933814 3.507004997891674 0  25.75113081174617 0.3392822253260199 0  44.95346046598429 3.358015797578906 0  45.38809461723082 3.111698765759393 0  45.81873131092848 3.364956225688962 0  45.82274840650096 2.865352837942679 0  46.25344565672935 3.118653322361255 0  44.9574513308071 2.858472782824535 0  44.52280832710439 3.104810655138187 0  36.28975640998004 8.26867540893975 0  46.25745380663341 2.618978540239737 0  46.6881853947807 2.872292962635991 0  46.6841542349654 3.371986714182071 0  47.11892642787694 3.12562519960407 0  47.11489658059496 3.62533817594491 0  47.1229254874471 2.625902171928425 0  44.52315736669636 2.611405492945048 0  44.09152620764496 2.852613032396174 0  21.80402279473792 0.501426459047579 0  26.72058374772561 0.4685560381146727 0  20.49001870912494 3.762301571041263 0  20.42896655584942 1.769814017120139 0  35.43657170315996 10.75047064353008 0  32.24838131453267 0.4380862171977915 0  34.24998103971688 0.4265816238227513 0  39.23286845795997 0.3892914549898849 0  36.71449556918873 12.03460005377439 0  49.56700094061701 10.75002379498987 0  44.74785380564286 0.4318428124980285 0  49.56698729810778 7.25 0  49.56698729810778 5.25 0  41.75357931882412 12.06717489571233 0  48.2500097329031 0.4330078971195315 0  49.61096853170235 1.698579358271305 0  44.25250659401059 12.06717606107214 0  46.27475802051472 12.08427716312347 0  48.25817100556961 12.04659466676754 0  45.80246037927057 5.362571234351134 0  46.23695179573815 5.116439242093486 0  46.23292567716987 5.615825992586117 0  46.66747573855103 5.369663439255333 0  46.66344951031266 5.869107087735642 0  47.09803131485423 5.622867037013128 0  47.09399585821562 6.122406539653696 0  46.6582544949178 6.36858199772937 0  47.08974383592535 6.621953720684802 0  46.65394211259665 6.86814732699408 0  47.08562295439287 7.121528002929194 0  46.65062193079182 7.367788072089773 0  47.08167172227719 7.621139315855477 0  46.64667290707573 7.867414954954436 0  47.0776463368315 8.12078019238435 0  46.6429025318586 8.367047988751446 0  46.2117837325082 8.114028996342832 0  46.20820909516439 8.61333854118244 0  46.63876615977198 8.866940871416462 0  45.77736141928004 8.360365717969916 0  45.77341475426048 8.859682464890806 0  45.34276227017226 8.606601559554742 0  45.3388041784095 9.105801214312418 0  44.90816365022975 8.852808085835486 0  44.90424769090463 9.351970021169716 0  44.47361508786466 9.098968995806354 0  44.46968219064736 9.598134249475166 0  44.03905842007673 9.345140328775482 0  45.33474311030862 9.605327239713217 0  44.0351190627536 9.844305277757378 0  43.60467613452145 9.591027019973748 0  43.60879666416682 9.091574438767086 0  4
[...]
<PointData  Vectors="u"> 
<DataArray  type="Float64"  Name="u"  NumberOfComponents="3" format="ascii">4.5745478512064364e-01 2.6448434683015817e-02 0.0000000000000000e+00  5.8518231846408264e-01 -7.3169918973346182e-01 0.0000000000000000e+00  2.6348525898623099e-01 -7.3132892981055886e-01 0.0000000000000000e+00  2.6440835037595511e-01 -4.6925136366596432e-01 0.0000000000000000e+00  3.8590988937103204e-01 -3.5380216351687227e-01 0.0000000000000000e+00  3.9000708735396727e-01 -3.2051304433727994e-02 0.0000000000000000e+00  4.0309019795296469e-01 0.0000000000000000e+00 0.0000000000000000e+00  4.1999980241167489e-01 0.0000000000000000e+00 0.0000000000000000e+00  4.5694779778483063e-01 2.4822520341039874e-02 0.0000000000000000e+00  4.5642883270324419e-01 2.3218654987691097e-02 0.0000000000000000e+00  4.5591024958203979e-01 2.1667711730867463e-02 0.0000000000000000e+00  4.5541562426824322e-01 2.0190376227738203e-02 0.0000000000000000e+00  4.5496795041325011e-01 1.8790114123414692e-02 0.0000000000000000e+00  4.5458417888208025e-01 1.7474116695553744e-02 0.0000000000000000e+00  4.5429233153588228e-01 1.6225118442837264e-02 0.0000000000000000e+00  4.5410512189176772e-01 1.5034891878320999e-02 0.0000000000000000e+00  4.5403344672754259e-01 1.3884060069830445e-02 0.0000000000000000e+00  4.5410353284249561e-01 1.2765653412767548e-02 0.0000000000000000e+00  4.5431792382300168e-01 1.1635148943829443e-02 0.0000000000000000e+00  4.5469500558740705e-01 1.0490380411945131e-02 0.0000000000000000e+00  4.5524350447289780e-01 9.2985791809523082e-03 0.0000000000000000e+00  4.5597208204034512e-01 8.0371533773442218e-03 0.0000000000000000e+00  4.5689472697372968e-01 6.6777115057807977e-03 0.0000000000000000e+00  4.5802072077819200e-01 5.2097038228146484e-03 0.0000000000000000e+00  4.5937496472164802e-01 3.5876254131183174e-03 0.0000000000000000e+00  4.6094012389752576e-01 1.7499675125603169e-03 0.0000000000000000e+00  4.6272921423532259e-01 -2.7822297713806551e-04 0.0000000000000000e+00  4.6471625552210610e-01 -2.6083322638823037e-03 0.0000000000000000e+00  4.6697622878083639e-01 -5.2036522852075655e-03 0.0000000000000000e+00  4.6948722770105977e-01 -8.1600541837312628e-03 0.0000000000000000e+00  4.7223773586378115e-01 -1.1531613036376951e-02 0.0000000000000000e+00  4.7522668878173363e-01 -1.5311579614648314e-02 0.0000000000000000e+00  4.7839160027620886e-01 -1.9645271381167347e-02 0.0000000000000000e+00  4.8187919779423910e-01 -2.4419417905845450e-02 0.0000000000000000e+00  4.8550134230706005e-01 -2.9853647861129415e-02 0.0000000000000000e+00  4.8942849616846568e-01 -3.5877799051796957e-02 0.0000000000000000e+00  4.9349432000119536e-01 -4.2644786551901515e-02 0.0000000000000000e+00  4.9773652913202654e-01 -5.0128894687469290e-02 0.0000000000000000e+00  5.0214763779809213e-01 -5.8402065011846416e-02 0.0000000000000000e+00  5.0672747782793681e-01 -6.7501502842462383e-02 0.0000000000000000e+00  5.1147571742899023e-01 -7.7490499349202852e-02 0.0000000000000000e+00  5.1625756908407139e-01 -8.8393870720568507e-02 0.0000000000000000e+00  5.2122046552585399e-01 -1.0023768704788129e-01 0.0000000000000000e+00  5.2631449477712633e-01 -1.1317582383821351e-01 0.0000000000000000e+00  5.3153676573767128e-01 -1.2721026754543249e-01 0.0000000000000000e+00  5.3686704758996351e-01 -1.4242671605950005e-01 0.0000000000000000e+00  5.4218896552510998e-01 -1.5895743862752548e-01 0.0000000000000000e+00  5.4783128455714436e-01 -1.7683135662192537e-01 0.0000000000000000e+00  5.5324373303983954e-01 -1.9617248968121387e-01 0.0000000000000000e+00  5.5864600157513633e-01 -2.1713537590378224e-01 0.0000000000000000e+00  5.6419996568615716e-01 -2.3979563404763773e-01 0.0000000000000000e+00  5.6918772084171176e-01 -2.6414165655657357e-01 0.0000000000000000e+00  5.7378107279324320e-01 -2.9024793107157110e-01 0.0000000000000000e+00  5.7773098756113950e-01 -3.1789740021978746e-01 0.0000000000000000e+00  5.8076343649900308e-01 -3.4671955133845034e-01 0.0000000000000000e+00  5.8294370718469146e-01 -3.7633918918739340e-01 0.0000000000000000e+00  5.8440088365088305e-01 -4.0652172679882781e-01 0.0000000000000000e+00  5.8515989136525282e-01 -4.3660035959353860e-01 0.0000000000000000e+00  5.8549931387728482e-01 -4.6666797914404723e-01 0.0000000000000000e+00  5.8558985682662867e-01 -4.9653549199356944e-01 0.0000000000000000e+00  5.8554763226060091e-01 -5.2622323701180063e-01 0.0000000000000000e+00  5.8545479902871500e-01 -5.5575255583643579e-01 0.0000000000000000e+00  5.8536068628986382e-01 -5.8517134225712597e-01 0.0000000000000000e+00  5.8528046283536628e-01 -6.1452035803577854e-01 0.0000000000000000e+00  5.8522606928016252e-01 -6.4382851718411627e-01 0.0000000000000000e+00  5.8519408149372254e-01 -6.7311534447375998e-01 0.0000000000000000e+00  5.8518278673602964e-01 -7.0240223846442829e-01 0.0000000000000000e+00  5.5586633636659755e-01 -7.3169882686401333e-01 0.0000000000000000e+00  5.2654106209526075e-01 -7.3168833867899508e-01 0.0000000000000000e+00  4.9721647915246275e-01 -7.3165977934672632e-01 0.0000000000000000e+00  4.6790760962818240e-01 -7.3161307823105937e-01 0.0000000000000000e+00  4.3862574112985686e-01 -7.3155215555724573e-01 0.0000000000000000e+00  4.0937908817110485e-01 -7.3148551273935059e-01 0.0000000000000000e+00  3.8016883268525736e-01 -7.3142070004434523e-01 0.0000000000000000e+00  3.5098836611911133e-01 -7.3137104828002708e-01 0.0000000000000000e+00  3.2182357613831253e-01 -7.3134063453024789e-01 0.0000000000000000e+00  2.9266009989073410e-01 -7.3132886874827829e-01 0.0000000000000000e+00  2.6348475366367030e-01 -7.0499531882959054e-01 0.0000000000000000e+00  2.6349255459394777e-01 -6.7865093979137459e-01 0.0000000000000000e+00  2.6351740251105632e-01 -6.5230380836499324e-01 0.0000000000000000e+00  2.6356663791528712e-01 -6.2596352664270494e-01 0.0000000000000000e+00  2.6364544793739569e-01 -5.9964453439425880e-01 0.0000000000000000e+00  2.6375229116124399e-01 -5.7337109896144201e-01 0.0000000000000000e+00  2.6389689378472447e-01 -5.4715666768842963e-01 0.0000000000000000e+00  2.6406540594521560e-01 -5.2104473011441843e-01 0.0000000000000000e+00  2.6425715734468574e-01 -4.9506508107770009e-01 0.0000000000000000e+00  2.8362477536599778e-01 -4.5037285040578551e-01 0.0000000000000000e+00  3.0273846730454573e-01 -4.3181533906138991e-01 0.0000000000000000e+00  3.2138929200749250e-01 -4.1381460327624225e-01 0.0000000000000000e+00  3.3919343188847462e-01 -3.9655764960984374e-01 0.0000000000000000e+00  3.5646201494715796e-01 -3.7964315281937377e-01 0.0000000000000000e+00  3.8512709209491219e-01 -3.2220253360983703e-01 0.0000000000000000e+00  3.8414720332316155e-01 -2.9606980871775634e-01 0.0000000000000000e+00  3.8253043500709999e-01 -2.7256536116108726e-01 0.0000000000000000e+00  3.8086193270203500e-01 -2.5097834588251461e-01 0.0000000000000000e+00  3.7937107021491406e-01 -2.3092028948287152e-01 0.0000000000000000e+00  3.7816005340976649e-01 -2.1219405307251002e-01 0.0000000000000000e+00  3.7728371858433113e-01 -1.9467203351505660e-01 0.0000000000000000e+00  3.7671325648388171e-01 -1.7826744234250724e-01 0.0000000000000000e+00  3.7643047172842048e-01 -1.6288958736061776e-01 0.0000000000000000e+00  3.7642779318790320e-01 -1.4845484940206485e-01 0.0000000000000000e+00  3.7666555957984199e-01 -1.3489278942732483e-01 0.0000000000000000e+00  3.7711750959620188e-01 -1.2212149929579999e-01 0.0000000000000000e+00  3.7777261985580529e-01 -1.1006043239110506e-01 0.0000000000000000e+00  3.7860467574773105e-01 -9.8624529140831849e-02 0.0000000000000000e+00  3.7961118396639981e-01 -8.7712757237745756e-02 0.0000000000000000e+00  3.8079470042133368e-01 -7.7203570328694002e-02 0.0000000000000000e+00  3.8219926988048097e-01 -6.6920993367846016e-02 0.0000000000000000e+00  3.8394688008186528e-01 -5.6583947447574431e-02 0.0000000000000000e+00  3.8637352937924407e-01 -4.5628217949071743e-02 0.0000000000000000e+00  3.9574780545880622e-01 -2.3815039637937477e-02 0.0000000000000000e+00  3.9852996015244879e-01 -1.8579309063082194e-02 0.0000000000000000e+00  4.0025241532900402e-01 -1.4616893891317822e-02 0.0000000000000000e+00  4.0141308939405163e-01 -1.1265908767892985e-02 0.0000000000000000e+00  4.0218458835558785e-01 -8.2425252110132734e-03 0.0000000000000000e+00  4.0268008636950764e-01 -5.4061552848861218e-03 0.0000000000000000e+00  4.0297168845495773e-01 -2.6729901853309482e-03 0.0000000000000000e+00  4.0198522522455649e-01 0.0000000000000000e+00 0.0000000000000000e+00  4.0092241088329156e-01 0.0000000000000000e+00 0.0000000000000000e+00  3.9997769079347495e-01 0.0000000000000000e+00 0.0000000000000000e+00  3.9921157603227136e-01 0.0000000000000000e+00 0.0000000000000000e+00  3.9870540387228071e-01 0.0000000000000000e+00 0.0000000000000000e+00  3.9845066307926957e-01 0.0000000000000000e+00 0.0000000000000000e+00  3.9847465342490190e-01 0.0000000000000000e+00 0.0000000000000000e+00  3.9869729107716828e-01 0.0000000000000000e+00 0.0000000000000000e+00  3.9912593122970252e-01 0.0000000000000000e+00 0.0000000000000000e+00  3.9972381585297012e-01 0.0000000000000000e+00 0.0000000000000000e+00  4.0044650829184142e-01 0.0000000000000000e+00 0.0000000000000000e+00  4.0129542124726958e-01 0.0000000000000000e+00 0.0000000000000000e+00  4.0222743766702040e-01 0.0000000000000000e+00 0.0000000000000000e+00  4.0321898908369436e-01 0.0000000000000000e+00 0.0000000000000000e+00  4.0424780991811038e-01 0.0000000000000000e+00 0.0000000000000000e+00  4.0530167631876501e-01 0.0000000000000000e+00 0.0000000000000000e+00  4.0637003424584267e-01 0.0000000000000000e+00 0.0000000000000000e+00  4.0743863261642638e-01 0.0000000000000000e+00 0.0000000000000000e+00  4.0849897824076653e-01 0.0000000000000000e+00 0.0000000000000000e+00  4.0954990690043813e-01 0.0000000000000000e+00 0.0000000000000000e+00  4.1059073392845818e-01 0.0000000000000000e+00 0.0000000000000000e+00  4.1162069040188087e-01 0.0000000000000000e+00 0.0000000000000000e+00  4.1263793458710407e-01 0.0000000000000000e+00 0.0000000000000000e+00  4.1364295143739638e-01 0.0000000000000000e+00 0.0000000000000000e+00  4.1465478358999852e-01 0.0000000000000000e+00 0.0000000000000000e+00  4.1566824987564910e-01 0.0000000000000000e+00 0.0000000000000000e+00  4.1669985868588544e-01 0.0000000000000000e+00 0.0000000000000000e+00  4.1776081520508862e-01 0.0000000000000000e+00 0.0000000000000000e+00  4.1885587494182358e-01 0.0000000000000000e+00 0.0000000000000000e+00  4.2011836953040427e-01 1.9402968549746076e-03 0.0000000000000000e+00  4.2040881046676715e-01 3.8636401278773105e-03 0.0000000000000000e+00  4.2090311245624207e-01 5.7615913007156476e-03 0.0000000000000000e+00  4.2158670559644651e-01 7.6235133954756819e-03 0.0000000000000000e+00  4.2245591924703252e-01 9.4412982095522565e-03 0.0000000000000000e+00  4.2350325988519671e-01 1.1203111341533116e-02 0.0000000000000000e+00  4.2472044439816325e-01 1.2895729499871897e-02 0.0000000000000000e+00  4.2609477007388741e-01 1.4507384343462543e-02 0.0000000000000000e+00  4.2761507586001141e-01 1.6030272996398774e-02 0.0000000000000000e+00  4.2926644831951100e-01 1.7454900372279952e-02 0.0000000000000000e+00  4.3103258654666771e-01 1.8773417715711126e-02 0.0000000000000000e+00  4.3289589218292474e-01 1.9979288832011111e-02 0.0000000000000000e+00  4.3483739807051852e-01 2.1067536796306661e-02 0.0000000000000000e+00  4.3683705667101697e-01 2.2034979321986108e-02 0.0000000000000000e+00  4.3887129534539832e-01 2.2880273706063825e-02 0.0000000000000000e+00  4.4092236213679731e-01 2.3605812009868093e-02 0.0000000000000000e+00  4.4296994221302616e-01 2.4215826105663137e-02 0.0000000000000000e+00  4.4499056625129824e-01 2.4715593396875103e-02 0.0000000000000000e+00  4.4696880258905908e-01 2.5115070845255862e-02 0.0000000000000000e+00  4.4887895413049622e-01 2.5434746347897927e-02 0.0000000000000000e+00  4.5072143537975484e-01 2.5686633889485156e-02 0.0000000000000000e+00  4.5248955041437910e-01 2.5892855174637078e-02 0.0000000000000000e+00  4.5419244207412124e-01 2.6072447521308027e-02 0.0000000000000000e+00  4.5583481236063533e-01 2.6255522636350795e-02 0.0000000000000000e+00  4.0597521670855441e-01 4.3153736634138167e-04 0.0000000000000000e+00  4.5979310246578037e-01 1.3620359566220092e-03 0.0000000000000000e+00  4.5375529050936403e-01 1.0079667357333896e-02 0.0000000000000000e+00  4.0091443849819741e-01 -1.8485438355552838e-04 0.0000000000000000e+00  4.3312665123970140e-01 1.8964611901992088e-02 0.0000000000000000e+00  4.7017465946368825e-01 -1.2405347606944487e-02 0.0000000000000000e+00  4.1023084135953658e-01 8.0814618189360308e-04 0.0000000000000000e+00  3.8976664599973776e-01 -3.6055230968997889e-02 0.0000000000000000e+00  4.4153388738948868e-01 2.2480737888851257e-02 0.0000000000000000e+00  3.9105097821839774e-01 -2.8945347980738334e-02 0.0000000000000000e+00  3.9241869487934616e-01 -3.1170144330224615e-02 0.0000000000000000e+00  3.9321547472920737e-01 -2.5674278941158112e-02 0.0000000000000000e+00  3.9535807237446813e-01 -2.7053450623411465e-02 0.0000000000000000e+00  3.9582884536020568e-01 -2.2410847829936090e-02 0.0000000000000000e+00  4.2596416280457144e-01 1.4048346102840656e-02 0.0000000000000000e+00  3.9848405854335467e-01 -2.3285522195476003e-02 0.0000000000000000e+00  3.9867711384522458e-01 -1.9227868345715191e-02 0.0000000000000000e+00  3.8469537118674269e-01 -8.7563272129623226e-02 0.0000000000000000e+00  4.5297484794994491e-01 1.4390364530711972e-02 0.0000000000000000e+00  4.0171104031928245e-01 -1.9723561653106677e-02 0.0000000000000000e+00  4.0165342226510448e-01 -1.6165915848855187e-02 0.0000000000000000e+00  4.8939999138778301e-01 -4.5338791362229687e-02 0.0000000000000000e+00  4.0497002691127248e-01 -1.6409182896668026e-02 0.0000000000000000e+00  4.0468815206923237e-01 -1.3260949931546875e-02 0.0000000000000000e+00  4.0821498009600121e-01 -1.3320624487141136e-02 0.0000000000000000e+00  4.0773178124057569e-01 -1.0532232610313672e-02 0.0000000000000000e+00  4.0552534151128872e-01 -2.0168909262378687e-02 0.0000000000000000e+00  4.1140912009009817e-01 -1.0458076823379332e-02 0.0000000000000000e+00  4.1074672752002084e-01 -7.9903528939459807e-03 0.0000000000000000e+00  5.0253270528948268e-01 -8.0651472349669656e-02 0.0000000000000000e+00  4.1452403339943195e-01 -7.8201779169342640e-03 0.0000000000000000e+00  4.1370351968638386e-01 -5.6392715165165148e-03 0.0000000000000000e+00  3.8411512668933268e-01 -1.3481085622722200e-01 0.0000000000000000e+00  4.1753632434468801e-01 -5.4031539245160808e-03 0.0000000000000000e+00  4.1657829163251181e-01 -3.4786449225919637e-03 0.0000000000000000e+00  4.1305387857094988e-01 -3.7832871588502990e-03 0.0000000000000000e+00  4.1580161055721687e-01 -1.8412448623650124e-03 0.0000000000000000e+00  4.1935290812406500e-01 -1.5040498117964562e-03 0.0000000000000000e+00  4.1845764240366495e-01 -6.5494465775173388e-05 0.0000000000000000e+00  4.1516969652970015e-01 -4.5375591295110970e-04 0.0000000000000000e+00  4.1771783570433946e-01 1.1511517268333079e-03 0.0000000000000000e+00  4.2101697366957336e-01 1.5568806869566071e-03 0.0000000000000000e+00  4.2017932382690154e-01 2.6198144150422491e-03 0.0000000000000000e+00  4.1709828639215268e-01 2.1716073544461789e-03 0.0000000000000000e+00  4.1947165321199475e-01 3.5095204736095842e-03 0.0000000000000000e+00  4.2255233649867091e-01 3.9652895731736451e-03 0.0000000000000000e+00  4.2176411719120876e-01 4.7409350299413480e-03 0.0000000000000000e+00  4.1886834460611427e-01 4.2460616058944065e-03 0.0000000000000000e+00  4.2108951680427575e-01 5.3834030169226266e-03 0.0000000000000000e+00  4.2397635180523985e-01 5.8797126713646050e-03 0.0000000000000000e+00  4.2323686781276987e-01 6.4439370663990749e-03 0.0000000000000000e+00  4.2050728372884721e-01 5.9081607272048267e-03 0.0000000000000000e+00  4.2259788085094635e-01 6.9083403320705080e-03 0.0000000000000000e+00  4.2531511040718745e-01 7.4423423397651936e-03 0.0000000000000000e+00  4.2462708858644904e-01 7.8619798081973839e-03 0.0000000000000000e+00  4.2204901185663557e-01 7.2878437853268717e-03 0.0000000000000000e+00  4.1871064625147597e-01 -7.6612690943565166e-03 0.0000000000000000e+00  4.2732736580235003e-01 8.3925463170374682e-03 0.0000000000000000e+00  4.2659567149094513e-01 8.7834761992504305e-03 0.0000000000000000e+00  2.8621584548065554e-01 -5.3215688153773166e-01 0.0000000000000000e+00  5.2089445480264107e-01 -1.3300238897868333e-01 0.0000000000000000e+00  4.0181327403941142e-01 -1.3142888905335579e-02 0.0000000000000000e+00  4.2926910311246746e-01 9.3080419878724899e-03 0.0000000000000000e+00  4.2850458864845781e-01 9.6871366045433900e-03 0.0000000000000000e+00  4.1435024683944893e-01 1.1190474568883678e-03 0.0000000000000000e+00  4.7820927380445416e-01 -2.5609667503059562e-02 0.0000000000000000e+00  4.3012294470460749e-01 8.8696749454752460e-03 0.0000000000000000e+00  3.9888887967222869e-01 -8.0850243258823965e-04 0.0000000000000000e+00  4.5360198564498672e-01 1.8025689819670336e-02 0.0000000000000000e+00  4.5607142211687002e-01 6.3040859967198014e-03 0.0000000000000000e+00  4.3113890033795305e-01 1.0204253679412913e-02 0.0000000000000000e+00  3.8660954718659812e-01 -1.7832875128174711e-01 0.0000000000000000e+00  5.5992600920349511e-01 -5.6832391895912115e-01 0.0000000000000000e+00  4.3035708988844679e-01 1.0588590580871176e-02 0.0000000000000000e+00  4.2782225574288546e-01 1.0018734580898461e-02 0.0000000000000000e+00  4.3294329488368427e-01 1.1097687606551233e-02 0.0000000000000000e+00  3.4694959234072642e-01 -4.2048632292869553e-01 0.0000000000000000e+00  5.3134703220568047e-01 -1.8180537805389529e-01 0.0000000000000000e+00  3.9851393183781059e-01 -1.6611792222334105e-03 0.0000000000000000e+00  4.3215480649922527e-01 1.1502658329991448e-02 0.0000000000000000e+00  4.3468624732657857e-01 1.2004204344652715e-02 0.0000000000000000e+00  4.2368721798921893e-01 -7.0473707219688830e-01 0.0000000000000000e+00  4.2203423621857838e-01 9.5032729441746153e-03 0.0000000000000000e+00  4.4762698542640611e-01 2.3837840824070658e-02 0.0000000000000000e+00  4.3555662260699646e-01 1.1543413486133343e-02 0.0000000000000000e+00  3.9247635170082923e-01 -2.3113552317803956e-01 0.0000000000000000e+00  5.6060549012929251e-01 -4.8180089268538212e-01 0.0000000000000000e+00  4.3722466898083179e-01 1.2440366604407158e-02 0.0000000000000000e+00  3.9823132430397062e-01 -1.7093080097590464e-02 0.0000000000000000e+00  4.3390181416640250e-01 1.2445088750116460e-02 0.0000000000000000e+00  5.4514940107230914e-01 -2.4680423001335336e-01 0.0000000000000000e+00  4.3816418576159000e-01 1.1921577432556686e-02 0.0000000000000000e+00  3.9530902658862455e-01 -3.2995608988534056e-02 0.0000000000000000e+00  2.8516299242120974e-01 -6.1375616297127855e-01 0.0000000000000000e+00  4.3973826393480259e-01 1.2808286619352916e-02 0.0000000000000000e+00  4.0294595012174933e-01 -2.9432579752386462e-01 0.0000000000000000e+00  5.6383142232773764e-01 -3.9100320095784058e-01 0.0000000000000000e+00  4.4073131131868415e-01 1.2229213381080566e-02 0.0000000000000000e+00  4.4219394449513200e-01 1.3106631461317924e-02 0.0000000000000000e+00  4.4125271306602248e-01 1.3726977570684744e-02 0.0000000000000000e+00  4.4359854323762643e-01 1.4018428506718406e-02 0.0000000000000000e+00  4.4271658280725501e-01 1.4693068984641179e-02 0.0000000000000000e+00  4.4322230295761206e-01 1.2465868784027804e-02 0.0000000000000000e+00  4.4182099970054167e-01 1.1616566462148979e-02 0.0000000000000000e+00  3.9436387957808700e-01 -2.1378201703569060e-02 0.0000000000000000e+00  4.4495622515341676e-01 1.4979872677988639e-02 0.0000000000000000e+00  4.4413878340228374e-01 1.5720218760862058e-02 0.0000000000000000e+00  4.4190597170462764e-01 1.5372901158644979e-02 0.0000000000000000e+00  4.4338376322649220e-01 1.6478242176118582e-02 0.0000000000000000e+00  4.4116158050588683e-01 1.6070765791732233e-02 0.0000000000000000e+00  4.4552707318889628e-01 1.6820198932559816e-02 0.0000000000000000e+00  4.4431380997927894e-01 1.1782797492307068e-02 0.0000000000000000e+00  4.4301176