<?xml version="1.0"?>
<VTKFile type="UnstructuredGrid"  version="0.1"  >
<UnstructuredGrid>
<Piece  NumberOfPoints="1270" NumberOfCells="2397">
<Points>
<DataArray  type="Float64"  NumberOfComponents="3"  format="ascii">40 0 0  20 0 0  20 11.23695387487743 0  23.32301726867924 8.11526612481358 0  23.32301726867924 12.5 0  40 12.5 0  39.5 0 0  39 0 0  38.5 0 0  38 0 0  37.5 0 0  37 0 0  36.5 0 0  36 0 0  35.5 0 0  35 0 0  34.5 0 0  34 0 0  33.5 0 0  33 0 0  32.5 0 0  32 0 0  31.5 0 0  31 0 0  30.5 0 0  30 0 0  29.5 0 0  29 0 0  28.5 0 0  28 0 0  27.5 0 0  27 0 0  26.5 0 0  26 0 0  25.5 0 0  25 0 0  24.5 0 0  24 0 0  23.5 0 0  23 0 0  22.5 0 0  22 0 0  21.5 0 0  21 0 0  20.5 0 0  20 0.4885632119511926 0  20 0.9771264239023851 0  20 1.465689635853578 0  20 1.95425284780477 0  20 2.442816059755963 0  20 2.931379271707155 0  20 3.419942483658348 0  20 3.908505695609541 0  20 4.397068907560733 0  20 4.885632119511926 0  20 5.374195331463119 0  20 5.86275854341431 0  20 6.351321755365503 0  20 6.839884967316696 0  20 7.328448179267888 0  20 7.817011391219081 0  20 8.305574603170273 0  20 8.794137815121466 0  20 9.282701027072658 0  20 9.771264239023852 0  20 10.25982745097504 0  20 10.74839066292624 0  20.33230172686793 10.92478509987104 0  20.66460345373585 10.61261632486466 0  20.99690518060377 10.30044754985827 0  21.3292069074717 9.988278774851889 0  21.66150863433962 9.676109999845504 0  21.99381036120755 9.36394122483912 0  22.32611208807547 9.051772449832734 0  22.65841381494339 8.73960367482635 0  22.99071554181132 8.427434899819964 0  23.32301726867924 8.602458777612071 0  23.32301726867924 9.089651430410562 0  23.32301726867924 9.576844083209053 0  23.32301726867924 10.06403673600754 0  23.32301726867924 10.55122938880604 0  23.32301726867924 11.03842204160453 0  23.32301726867924 11.52561469440302 0  23.32301726867924 12.01280734720151 0  23.81351676077691 12.5 0  24.30401625287458 12.5 0  24.79451574497225 12.5 0  25.28501523706992 12.5 0  25.77551472916759 12.5 0  26.26601422126526 12.5 0  26.75651371336293 12.5 0  27.2470132054606 12.5 0  27.73751269755827 12.5 0  28.22801218965594 12.5 0  28.71851168175361 12.5 0  29.20901117385128 12.5 0  29.69951066594895 12.5 0  30.19001015804661 12.5 0  30.68050965014428 12.5 0  31.17100914224195 12.5 0  31.66150863433962 12.5 0  32.15200812643729 12.5 0  32.64250761853496 12.5 0  33.13300711063263 12.5 0  33.6235066027303 12.5 0  34.11400609482797 12.5 0  34.60450558692564 12.5 0  35.09500507902331 12.5 0  35.58550457112098 12.5 0  36.07600406321865 12.5 0  36.56650355531632 12.5 0  37.05700304741399 12.5 0  37.54750253951165 12.5 0  38.03800203160932 12.5 0  38.52850152370699 12.5 0  39.01900101580466 12.5 0  39.50950050790233 12.5 0  40 12 0  40 11.5 0  40 11 0  40 10.5 0  40 10 0  40 9.5 0  40 9 0  40 8.5 0  40 8 0  40 7.5 0  40 7 0  40 6.5 0  40 6 0  40 5.5 0  40 5 0  40 4.5 0  40 4 0  40 3.5 0  40 3 0  40 2.5 0  40 2 0  40 1.5 0  40 1 0  40 0.5 0  29.28536478413658 0.3805608265678675 0  33.39654530690932 12.06877587070133 0  30.93027466488963 12.07468345566037 0  32.24113273572421 0.3887863126395832 0  39.56461601613006 6.214007042886188 0  28.48415602429437 12.10162877396918 0  34.75844395467798 0.3909227743891162 0  26.74558205354585 0.3972170580840553 0  35.31623282153623 12.11246747172408 0  24.76911303006818 0.4213680155098585 0  23.72927803303477 8.358909194218571 0  23.70963211745911 7.895299066886807 0  24.12608494630871 8.128322770399457 0  24.1186223731948 7.653103159095905 0  24.52271169715024 7.894633286103419 0  24.52063628856225 7.417677144744047 0  24.92344858325113 7.669821607065384 0  39.59038412537683 4.24999831742657 0  24.92453355834994 7.185067039371408 0  25.33069248377772 7.440503424936618 0  39.59752061038202 8.238633803101498 0  25.3307892776933 6.950055856388704 0  25.74532164774131 7.196431010874925 0  25.74640070375991 6.722218244527317 0  26.15831094173876 6.960430358879614 0  25.28353997700875 6.45892200168393 0  26.15836697723292 6.485415685772195 0  26.57190488829112 6.72361340360711 0  20.46567583452081 3.616469972772479 0  26.57114740979998 6.245209417013639 0  26.98684782732314 6.484904003716474 0  26.98672657470172 6.005149419427794 0  27.40313417365953 6.245119355922382 0  27.40074306667004 6.729340201233518 0  27.81974326409111 6.487185800519513 0  27.82031549506156 6.004304390858819 0  28.23847339607672 6.245178009033222 0  28.23786748214592 6.729085251833848 0  28.65740992577136 6.487104476214111 0  28.65756050125108 6.002560714260216 0  29.07758624030639 6.244885642923569 0  29.07753650745894 5.759354269056465 0  29.49846529120617 6.002177087206601 0  29.49808175513931 6.488326593172226 0  29.91979575322638 6.245953491628444 0  29.91946186185299 5.759600800111623 0  30.34199384945239 6.002234578274047 0  30.34166870254396 6.490321670141707 0  30.76466701005764 6.246406032536017 0  30.76416419809879 6.734669478568505 0  31.18780776530634 6.490925614387701 0  31.1876579610325 6.001659229227251 0  31.61178606020571 6.246717393198977 0  31.61134664027537 6.736285345189746 0  32.03616047491982 6.492070236810956 0  32.03655609406374 6.001602748241663 0  32.46153936708274 6.247382583826945 0  32.46188850699752 5.756156766120101 0  32.88700685749965 6.002885434568072 0  32.88675390802148 6.493988046594533 0  33.31272781141452 6.249369807001286 0  33.31235845644394 6.741006282574719 0  33.73857742738065 6.496361088811432 0  33.74143743832477 6.007233554222226 0  36.77035721402562 0.4212542548243219 0  33.73835826408326 6.988078013394176 0  34.16539195941168 6.742165880037449 0  25.73075581410248 7.695881695606123 0  34.16476878149479 7.235061270673533 0  23.72878093967499 7.435325786577456 0  34.59148809354195 6.99017245436876 0  33.73352381284362 7.473522672474226 0  26.56981315857139 5.76526519410684 0  23.18388655128601 0.4101975964058511 0  39.5586846917801 9.692551599339904 0  30.72987710971906 0.421054971382282 0  36.82516400451778 12.07388014821633 0  34.59131164678901 7.482498009687543 0  20.42865639663017 5.093585900565519 0  27.00176345941176 12.07521497930005 0  35.01887302745514 7.236470128845641 0  35.02024983143428 6.746585080491335 0  35.01823412713374 7.729723755079507 0  39.56698729810778 2.75 0  35.44612224706108 7.483563502664546 0  35.44533255090692 7.977212595014724 0  35.017528014338 8.223208078246731 0  25.52741874339968 12.07099212809785 0  23.74161776548565 9.825996317493125 0  35.44435356362804 8.470721428283664 0  20.42310815290426 2.198534453780367 0  35.01667047842972 8.716651180410699 0  35.87354183025609 7.730983388520357 0  20.44308516978148 6.558651395778737 0  35.44332466324657 8.963997367079136 0  35.01596758847262 9.209754856257462 0  22.88498261610039 7.982921005916955 0  35.44237657298051 9.457083785390665 0  35.86970342565941 9.211436076677769 0  38.28325177765816 12.07521497930005 0  38.24997376385829 0.3980734647524313 0  35.01531521718545 9.702882779950036 0  34.58893983538828 9.455508952440214 0  35.86882479856741 9.704545548896679 0  36.29651262435208 9.458768246977161 0  21.72028169418833 0.4094731298546783 0  24.51720754328333 8.373972679135685 0  34.5883371070457 9.948238251981968 0  34.16213950162212 9.701009280310288 0  20.40307937224054 8.052385355186651 0  36.2954079091995 9.952086611059348 0  36.72347037503629 9.706257144460952 0  36.72458696345677 9.212298351559532 0  37.1526346977225 9.460437689925547 0  37.15345702462646 8.965215433322427 0  37.15199486140364 9.956507222405307 0  23.72917091720984 10.77523752749245 0  29.46022309419641 12.04444861264477 0  27.75294071038576 0.5001530563018362 0  25.74997542155193 0.4058413919407364 0  39.58852916456703 10.74974647995385 0  39.56698729810778 7.25 0  33.22552616979711 0.4050082633428005 0  39.56458849314122 5.286051224051668 0  35.73803304057692 0.4004789733247076 0  39.59341295319112 1.750000203983317 0  32.88365081872853 6.982098376625307 0  31.89058115151363 12.10729541793875 0  34.36791947886507 12.10597548820211 0  30.34094793679645 6.978554964992918 0  28.65668055869263 6.971156463407142 0  28.23697467281678 7.213087568622911 0  28.655716750391 7.455675365812694 0  28.23596313838373 7.69714627021537 0  28.65500128770215 7.940085048055693 0  28.23489854821001 8.181684574691655 0  28.65423610527936 8.42483830527819 0  28.23369857193275 8.666621950250516 0  28.64780869548258 8.920115236356626 0  28.2308827047345 9.161254438248815 0  29.07351247985702 8.669671984027151 0  29.06705564832653 9.165986531644332 0  29.4937956394967 8.914679918135025 0  29.49344702634603 9.400987322985088 0  29.91618186502503 9.157267084433913 0  27.81245603835707 8.910515949898636 0  27.81359808697898 9.409312400623152 0  27.39277291729194 9.153731416073956 0  29.91572852814367 9.65353468229347 0  30.33822276284607 9.403470404827505 0  27.39507807304046 9.642471896896058 0  26.97422089286479 9.393376036800316 0  26.97612867486944 9.881527258075907 0  26.55558781470783 9.633682389569318 0  29.49194481616065 9.918032010703744 0  27.81154666059666 9.889725962660096 0  30.3355448168891 9.901490500373896 0  30.75619964497665 9.652315387472086 0  30.76101149670773 9.158583620600073 0  31.18346420887579 9.404307038110845 0  31.17704284689968 9.901546789176161 0  31.60770622363306 9.657541127188832 0  31.60863945865756 9.161702938134534 0  26.55705777221879 10.1213680113573 0  26.13635328234279 9.874399435637336 0  32.03571484945666 9.408752086794486 0  32.03350287941931 9.912790557612313 0  32.03648062024222 5.510306133801172 0  32.46232774893261 5.264373976096431 0  32.03607296624219 5.018114324934428 0  32.46270350650946 4.771884720440976 0  32.03558153696986 4.525192312087174 0  32.46306169238859 4.278654860272497 0  32.035307286547 4.031614820571821 0  32.46345389525364 3.784909787545984 0  32.8913113520399 4.032122384028813 0  32.03518117828301 3.538006921201462 0  31.60723768645873 3.784689266394498 0  32.89130255651094 3.537585529854469 0  33.32044746096308 3.785502243783382 0  33.32021656960548 3.289838680842505 0  33.74993096424422 3.53826135
[...]
<PointData  Vectors="u"> 
<DataArray  type="Float64"  Name="u"  NumberOfComponents="3" format="ascii">2.3224683016615852e-01 1.9595293230854981e-02 0.0000000000000000e+00  2.5771203430743805e-01 -8.5994534509255954e-02 0.0000000000000000e+00  1.8001590269245162e-02 -1.4507073840223580e-01 0.0000000000000000e+00  1.6417444087073801e-01 -2.9584351969623515e-02 0.0000000000000000e+00  1.8930224720924566e-01 0.0000000000000000e+00 0.0000000000000000e+00  2.0730668286545248e-01 0.0000000000000000e+00 0.0000000000000000e+00  2.3174216541691170e-01 1.8529417228240759e-02 0.0000000000000000e+00  2.3122943408937466e-01 1.7478861097108892e-02 0.0000000000000000e+00  2.3071950664839974e-01 1.6460068139032114e-02 0.0000000000000000e+00  2.3021712213425038e-01 1.5495611660468056e-02 0.0000000000000000e+00  2.2974684758215599e-01 1.4588888778428543e-02 0.0000000000000000e+00  2.2932504522438324e-01 1.3727219715907861e-02 0.0000000000000000e+00  2.2895866606028381e-01 1.2918501151289105e-02 0.0000000000000000e+00  2.2866425018461975e-01 1.2141799457930084e-02 0.0000000000000000e+00  2.2844566491521920e-01 1.1408191051869654e-02 0.0000000000000000e+00  2.2832175531839205e-01 1.0684503315921124e-02 0.0000000000000000e+00  2.2829382186190736e-01 9.9589048091346614e-03 0.0000000000000000e+00  2.2837713407174506e-01 9.2398662877661627e-03 0.0000000000000000e+00  2.2856706132266397e-01 8.4694706048853742e-03 0.0000000000000000e+00  2.2887886240688715e-01 7.6754063974050846e-03 0.0000000000000000e+00  2.2932234464480256e-01 6.8119506709016075e-03 0.0000000000000000e+00  2.2989382434745406e-01 5.8596820840362118e-03 0.0000000000000000e+00  2.3061141670477553e-01 4.8268019147109367e-03 0.0000000000000000e+00  2.3144563311010513e-01 3.6445191659714624e-03 0.0000000000000000e+00  2.3243567585372893e-01 2.3256028965382590e-03 0.0000000000000000e+00  2.3356048212179961e-01 8.1646870318073650e-04 0.0000000000000000e+00  2.3483058545324836e-01 -8.7899548065301992e-04 0.0000000000000000e+00  2.3625074945532765e-01 -2.8164739028858224e-03 0.0000000000000000e+00  2.3780249791127023e-01 -4.9932319375473964e-03 0.0000000000000000e+00  2.3945919290795925e-01 -7.4759488458669421e-03 0.0000000000000000e+00  2.4117772994230532e-01 -1.0276830679843207e-02 0.0000000000000000e+00  2.4301831730606985e-01 -1.3415370518132168e-02 0.0000000000000000e+00  2.4490247859138331e-01 -1.6915296677188826e-02 0.0000000000000000e+00  2.4680475177125474e-01 -2.0807253835564483e-02 0.0000000000000000e+00  2.4868158384412201e-01 -2.5075980009096551e-02 0.0000000000000000e+00  2.5047789761171096e-01 -2.9724828926229314e-02 0.0000000000000000e+00  2.5216793866413789e-01 -3.4747682680871722e-02 0.0000000000000000e+00  2.5366324128919343e-01 -4.0074776561560790e-02 0.0000000000000000e+00  2.5498131367233767e-01 -4.5699215373161683e-02 0.0000000000000000e+00  2.5604042825488182e-01 -5.1504368591534663e-02 0.0000000000000000e+00  2.5684583861016441e-01 -5.7482965800140104e-02 0.0000000000000000e+00  2.5737171985751550e-01 -6.3421347604298114e-02 0.0000000000000000e+00  2.5765023964195716e-01 -6.9295454041210930e-02 0.0000000000000000e+00  2.5774566437552932e-01 -7.5021431950568970e-02 0.0000000000000000e+00  2.5773157766218324e-01 -8.0575641021906758e-02 0.0000000000000000e+00  2.5242942917433869e-01 -8.5974177763448831e-02 0.0000000000000000e+00  2.4725302973776761e-01 -8.5971704552596506e-02 0.0000000000000000e+00  2.4226633943395326e-01 -8.6050557967965777e-02 0.0000000000000000e+00  2.3743388822849412e-01 -8.6319513679321391e-02 0.0000000000000000e+00  2.3270405943476219e-01 -8.6842024851082333e-02 0.0000000000000000e+00  2.2804541838954884e-01 -8.7697166111634556e-02 0.0000000000000000e+00  2.2333200783556734e-01 -8.8938318200400074e-02 0.0000000000000000e+00  2.1847907676056266e-01 -9.0610401178868413e-02 0.0000000000000000e+00  2.1336579078322793e-01 -9.2915080577674031e-02 0.0000000000000000e+00  2.0774578474522726e-01 -9.5704640180420505e-02 0.0000000000000000e+00  2.0147615300274307e-01 -9.9064415652925175e-02 0.0000000000000000e+00  1.9432996690851645e-01 -1.0316267443615527e-01 0.0000000000000000e+00  1.8597277181602148e-01 -1.0785061637021724e-01 0.0000000000000000e+00  1.7609902098419586e-01 -1.1294774245880927e-01 0.0000000000000000e+00  1.6460593483767738e-01 -1.1847318476643143e-01 0.0000000000000000e+00  1.5105232125300980e-01 -1.2395814970375015e-01 0.0000000000000000e+00  1.3587260796936840e-01 -1.2900466949461722e-01 0.0000000000000000e+00  1.1911031974875276e-01 -1.3349511117355672e-01 0.0000000000000000e+00  1.0113987194876198e-01 -1.3722091113739004e-01 0.0000000000000000e+00  8.2089817397062434e-02 -1.4022695750819594e-01 0.0000000000000000e+00  6.1918142771270133e-02 -1.4259574216979048e-01 0.0000000000000000e+00  4.0568565554073836e-02 -1.4432060937488708e-01 0.0000000000000000e+00  3.2677445541491525e-02 -1.2999412106667982e-01 0.0000000000000000e+00  4.7109813413234364e-02 -1.1648274048632408e-01 0.0000000000000000e+00  6.1170797089750067e-02 -1.0433749398045668e-01 0.0000000000000000e+00  7.4630059842575619e-02 -9.3218436267562765e-02 0.0000000000000000e+00  8.7714998433299302e-02 -8.3038692625554147e-02 0.0000000000000000e+00  1.0051524786256230e-01 -7.3422115267907484e-02 0.0000000000000000e+00  1.1323508308752551e-01 -6.4128951943192194e-02 0.0000000000000000e+00  1.2620716651979613e-01 -5.4820564741856398e-02 0.0000000000000000e+00  1.4068638100570902e-01 -4.4835213679992297e-02 0.0000000000000000e+00  1.7694733636616974e-01 -2.1235021772472024e-02 0.0000000000000000e+00  1.8164636470218931e-01 -1.6690782628041228e-02 0.0000000000000000e+00  1.8451415611549979e-01 -1.3459416209909130e-02 0.0000000000000000e+00  1.8627789166931524e-01 -1.0796361274770606e-02 0.0000000000000000e+00  1.8749278801453237e-01 -8.4223915429123049e-03 0.0000000000000000e+00  1.8832061739548533e-01 -6.2091643066086123e-03 0.0000000000000000e+00  1.8886542637356804e-01 -4.0949292177706771e-03 0.0000000000000000e+00  1.8917717277548832e-01 -2.0214316733296327e-03 0.0000000000000000e+00  1.8843160746343815e-01 0.0000000000000000e+00 0.0000000000000000e+00  1.8756347938850973e-01 0.0000000000000000e+00 0.0000000000000000e+00  1.8675340426249365e-01 0.0000000000000000e+00 0.0000000000000000e+00  1.8606805434141838e-01 0.0000000000000000e+00 0.0000000000000000e+00  1.8556549303600686e-01 0.0000000000000000e+00 0.0000000000000000e+00  1.8528440961774495e-01 0.0000000000000000e+00 0.0000000000000000e+00  1.8519285481058040e-01 0.0000000000000000e+00 0.0000000000000000e+00  1.8531800725360920e-01 0.0000000000000000e+00 0.0000000000000000e+00  1.8561767128858439e-01 0.0000000000000000e+00 0.0000000000000000e+00  1.8609756149324475e-01 0.0000000000000000e+00 0.0000000000000000e+00  1.8669572707303467e-01 0.0000000000000000e+00 0.0000000000000000e+00  1.8740750308108367e-01 0.0000000000000000e+00 0.0000000000000000e+00  1.8821349829479439e-01 0.0000000000000000e+00 0.0000000000000000e+00  1.8908180528955393e-01 0.0000000000000000e+00 0.0000000000000000e+00  1.8999334713296986e-01 0.0000000000000000e+00 0.0000000000000000e+00  1.9094397866063914e-01 0.0000000000000000e+00 0.0000000000000000e+00  1.9190999153580696e-01 0.0000000000000000e+00 0.0000000000000000e+00  1.9288482290655062e-01 0.0000000000000000e+00 0.0000000000000000e+00  1.9385808194132270e-01 0.0000000000000000e+00 0.0000000000000000e+00  1.9482777014393843e-01 0.0000000000000000e+00 0.0000000000000000e+00  1.9578876685349172e-01 0.0000000000000000e+00 0.0000000000000000e+00  1.9673281308852494e-01 0.0000000000000000e+00 0.0000000000000000e+00  1.9766195077673354e-01 0.0000000000000000e+00 0.0000000000000000e+00  1.9857071701274348e-01 0.0000000000000000e+00 0.0000000000000000e+00  1.9946279476123840e-01 0.0000000000000000e+00 0.0000000000000000e+00  2.0033670518491783e-01 0.0000000000000000e+00 0.0000000000000000e+00  2.0119965006897136e-01 0.0000000000000000e+00 0.0000000000000000e+00  2.0205468410915683e-01 0.0000000000000000e+00 0.0000000000000000e+00  2.0290303760345194e-01 0.0000000000000000e+00 0.0000000000000000e+00  2.0375250370450135e-01 0.0000000000000000e+00 0.0000000000000000e+00  2.0460987768264605e-01 0.0000000000000000e+00 0.0000000000000000e+00  2.0548480750598896e-01 0.0000000000000000e+00 0.0000000000000000e+00  2.0638041063337639e-01 0.0000000000000000e+00 0.0000000000000000e+00  2.0738848352375230e-01 1.3994536033912119e-03 0.0000000000000000e+00  2.0758795116687315e-01 2.7873091224154267e-03 0.0000000000000000e+00  2.0792372285970742e-01 4.1550187825313252e-03 0.0000000000000000e+00  2.0839359643591687e-01 5.5018646262630444e-03 0.0000000000000000e+00  2.0898214838020976e-01 6.8108437975312689e-03 0.0000000000000000e+00  2.0968917879861643e-01 8.0738270254347207e-03 0.0000000000000000e+00  2.1051922653417923e-01 9.3035492057778803e-03 0.0000000000000000e+00  2.1144879322531782e-01 1.0466826061917987e-02 0.0000000000000000e+00  2.1246623746000981e-01 1.1563836309320990e-02 0.0000000000000000e+00  2.1359411972677322e-01 1.2598247314165307e-02 0.0000000000000000e+00  2.1477401956102440e-01 1.3553311313583380e-02 0.0000000000000000e+00  2.1602372417452992e-01 1.4429283021863550e-02 0.0000000000000000e+00  2.1731446974875865e-01 1.5222308299941138e-02 0.0000000000000000e+00  2.1866258935912936e-01 1.5938663648722848e-02 0.0000000000000000e+00  2.2000693367150786e-01 1.6568620180491510e-02 0.0000000000000000e+00  2.2137437286711051e-01 1.7118702904703065e-02 0.0000000000000000e+00  2.2273113607592204e-01 1.7585364100393200e-02 0.0000000000000000e+00  2.2406101409069451e-01 1.7983706386344001e-02 0.0000000000000000e+00  2.2536486490517665e-01 1.8314616046293405e-02 0.0000000000000000e+00  2.2662411637146904e-01 1.8591712620038631e-02 0.0000000000000000e+00  2.2783791786901014e-01 1.8824145013423232e-02 0.0000000000000000e+00  2.2899763155403149e-01 1.9024026533781088e-02 0.0000000000000000e+00  2.3010691931515526e-01 1.9213068130572254e-02 0.0000000000000000e+00  2.3118525076986296e-01 1.9400040978685883e-02 0.0000000000000000e+00  2.3387303916358393e-01 -1.2713674544241437e-03 0.0000000000000000e+00  1.9540791742930219e-01 4.6111254675593302e-04 0.0000000000000000e+00  1.9053094202255991e-01 1.5475710047511602e-04 0.0000000000000000e+00  2.2876184671614744e-01 6.4944837315961826e-03 0.0000000000000000e+00  2.1612290058751832e-01 1.3839480788419907e-02 0.0000000000000000e+00  1.8640382903110139e-01 -4.5082684795044048e-04 0.0000000000000000e+00  2.2765287262200437e-01 1.0321407916956014e-02 0.0000000000000000e+00  2.4116808243752455e-01 -1.4591330302540586e-02 0.0000000000000000e+00  1.9902268763879299e-01 5.4805336394740407e-04 0.0000000000000000e+00  2.4717516840412357e-01 -3.1461182219427418e-02 0.0000000000000000e+00  1.7185545754895515e-01 -2.4788984842922020e-02 0.0000000000000000e+00  1.7148877726616246e-01 -2.5350689380492470e-02 0.0000000000000000e+00  1.7472122530669279e-01 -2.2077985172014338e-02 0.0000000000000000e+00  1.7704100932583811e-01 -2.2539659699755989e-02 0.0000000000000000e+00  1.7823511787690191e-01 -1.9507142665030244e-02 0.0000000000000000e+00  1.8138175333277282e-01 -1.9977746252915079e-02 0.0000000000000000e+00  1.8160384402171864e-01 -1.7144767825895607e-02 0.0000000000000000e+00  2.2155873910845514e-01 1.6312154869768187e-02 0.0000000000000000e+00  1.8505010408345265e-01 -1.7604914056280643e-02 0.0000000000000000e+00  1.8478646082959785e-01 -1.4930645570016263e-02 0.0000000000000000e+00  2.1128481602016164e-01 1.0275894737381774e-02 0.0000000000000000e+00  1.8832350425026481e-01 -1.5366218451231524e-02 0.0000000000000000e+00  1.8784842736014756e-01 -1.2831744277017734e-02 0.0000000000000000e+00  1.9125289997700742e-01 -1.3194923825599652e-02 0.0000000000000000e+00  1.9063814226996825e-01 -1.0869287373639647e-02 0.0000000000000000e+00  1.9251672726279082e-01 -1.6413743817550189e-02 0.0000000000000000e+00  1.9399761207461655e-01 -1.1181107246181895e-02 0.0000000000000000e+00  1.9325512511684759e-01 -9.0217444301515220e-03 0.0000000000000000e+00  2.2198321019536918e-01 -8.4458054558473356e-02 0.0000000000000000e+00  1.9657090014317796e-01 -9.2845826761599973e-03 0.0000000000000000e+00  1.9572890077436098e-01 -7.2766978108890551e-03 0.0000000000000000e+00  1.9898162740569103e-01 -7.4793472048002201e-03 0.0000000000000000e+00  1.9807310295540853e-01 -5.6297223023506187e-03 0.0000000000000000e+00  1.9512787747258806e-01 -5.5729164378930714e-03 0.0000000000000000e+00  1.9739750804714792e-01 -4.0562278820260667e-03 0.0000000000000000e+00  2.0030094611228605e-01 -4.0804053466723918e-03 0.0000000000000000e+00  1.9956387061060915e-01 -2.6380557429094846e-03 0.0000000000000000e+00  1.9692267654924556e-01 -2.7076114283623091e-03 0.0000000000000000e+00  1.9900501060788778e-01 -1.4111173643033433e-03 0.0000000000000000e+00  2.0163737291192568e-01 -1.3127902878307025e-03 0.0000000000000000e+00  2.0101187539238632e-01 -2.0106420914256640e-04 0.0000000000000000e+00  2.0362216781974740e-01 -7.6397267788799836e-05 0.0000000000000000e+00  2.0294376771282810e-01 9.2546759291983239e-04 0.0000000000000000e+00  2.0052478671874249e-01 7.3504003396394706e-04 0.0000000000000000e+00  2.0239850138183910e-01 1.7624162185835416e-03 0.0000000000000000e+00  2.0479599305838914e-01 1.9697319643555661e-03 0.0000000000000000e+00  2.0421185987002732e-01 2.7167841241098694e-03 0.0000000000000000e+00  2.0196907762402885e-01 2.4563942157864878e-03 0.0000000000000000e+00  2.0373442765903527e-01 3.3298802593643611e-03 0.0000000000000000e+00  2.0164163477871691e-01 3.0257593009867852e-03 0.0000000000000000e+00  2.0335551685257419e-01 3.8277433606185248e-03 0.0000000000000000e+00  2.0544385301637796e-01 4.1423771746979263e-03 0.0000000000000000e+00  2.0502121299727699e-01 4.5775227973518179e-03 0.0000000000000000e+00  2.0306057090575647e-01 4.2241252719955732e-03 0.0000000000000000e+00  2.0468353258016236e-01 4.9207704703403948e-03 0.0000000000000000e+00  2.0663840394241392e-01 5.2809109316657920e-03 0.0000000000000000e+00  2.0626349454481621e-01 5.5795538242922812e-03 0.0000000000000000e+00  2.0820256772962575e-01 5.9427625493079627e-03 0.0000000000000000e+00  2.0779528775052780e-01 6.2051395215420961e-03 0.0000000000000000e+00  2.0596094732968548e-01 5.8072882598667244e-03 0.0000000000000000e+00  2.0746337852342131e-01 6.4066254481202596e-03 0.0000000000000000e+00  2.0572494886118722e-01 5.9749626172394075e-03 0.0000000000000000e+00  2.0719611977512384e-01 6.5562451522086082e-03 0.0000000000000000e+00  2.0891966597414210e-01 6.9893159359673898e-03 0.0000000000000000e+00  2.2840848100429861e-01 1.3226822695454839e-02 0.0000000000000000e+00  2.0554994650473962e-01 6.0922758077959147e-03 0.0000000000000000e+00  2.0699408247035175e-01 6.6653638065392517e-03 0.0000000000000000e+00  1.8500035931180661e-01 -1.2690427622949774e-02 0.0000000000000000e+00  2.0543102785004566e-01 6.1677757425574577e-03 0.0000000000000000e+00  1.7786169423843740e-01 -2.7243858040386506e-02 0.0000000000000000e+00  2.0683835941835085e-01 6.7373919374581863e-03 0.0000000000000000e+00  2.0401391080485159e-01 5.6049182696312214e-03 0.0000000000000000e+00  2.0018846128359527e-01 -9.6759093992342827e-03 0.0000000000000000e+00  2.5111515544534352e-01 -4.9030405441710570e-02 0.0000000000000000e+00  2.0859790390764560e-01 7.0050125137654040e-03 0.0000000000000000e+00  2.3072439320934168e-01 3.2680013857525831e-03 0.0000000000000000e+00  2.0170865320077058e-01 7.2048913077991808e-04 0.0000000000000000e+00  2.0536143272758534e-01 6.2083265224400731e-03 0.0000000000000000e+00  2.0623678406288812e-01 -9.1011671831646990e-02 0.0000000000000000e+00  1.8518054231151210e-01 -1.0845264522695761e-03 0.0000000000000000e+00  2.0673995682236171e-01 6.7847765634985640e-03 0.0000000000000000e+00  2.0822181816938817e-01 7.3174144088281479e-03 0.0000000000000000e+00  2.0533993703499118e-01 6.2210116368209131e-03 0.0000000000000000e+00  2.2553702915304574e-01 1.7412163078775647e-02 0.0000000000000000e+00  2.0668538910267836e-01 6.8100407019362113e-03 0.0000000000000000e+00  2.0536145184782831e-01 6.2108798975745927e-03 0.0000000000000000e+00  2.0404348806235750e-01 5.6326747920488153e-03 0.0000000000000000e+00  1.8572981733745550e-01 -1.7502972469017925e-03 0.0000000000000000e+00  1.8455904682229768e-01 -1.3199788776767911e-02 0.0000000000000000e+00  2.0414376472749574e-01 5.5877672375342939e-03 0.0000000000000000e+00  2.3523162234639061e-01 -8.2189959674104210e-02 0.0000000000000000e+00  2.0286219145376364e-01 5.0238426979998625e-03 0.0000000000000000e+00  2.0667365476464880e-01 6.8193224685650080e-03 0.0000000000000000e+00  1.8366644624755629e-01 -1.0074373355648163e-01 0.0000000000000000e+00  2.0304320429410164e-01 4.9444061512979092e-03 0.0000000000000000e+00  2.0180699003460745e-01 4.3985545909625504e-03 0.0000000000000000e+00  1.6156656332665650e-01 -4.5370450154588647e-02 0.0000000000000000e+00  2.0206875982903685e-01 4.2842410227810525e-03 0.0000000000000000e+00  2.0326034413694932e-01 4.8420583170734419e-03 0.0000000000000000e+00  2.0422763613608380e-01 8.7982009981083724e-04 0.0000000000000000e+00  2.2967866187911817e-01 1.5814269868448697e-02 0.0000000000000000e+00  2.0088452988887426e-01 3.7597334729552664e-03 0.0000000000000000e+00  2.0057544672755159e-01 3.8793195398976539e-03 0.0000000000000000e+00  2.0236546720385984e-01 4.1444946215714847e-03 0.0000000000000000e+00  2.0351470453908063e-01 4.7198299677482115e-03 0.0000000000000000e+00  2.5292048186587135e-01 -6.6635166455440362e-02 0.0000000000000000e+00  1.7740410332509471e-01 -1.9144055380091545e-02 0.0000000000000000e+00  1.9970931209185250e-01 3.2638264302848564e-03 0.0000000000000000e+00  1.9934967748116530e-01 3.3818078515372332e-03 0.0000000000000000e+00  1.4544298298742722e-01 -1.1430854890776275e-01 0.0000000000000000e+00  2.0269728729178160e-01 3.9812284785304252e-03 0.0000000000000000e+00  2.0380560706865997e-01 4.5782703812913359e-03 0.0000000000000000e+00  2.0467634786259598e-01 5.3444217632529229e-03 0.0000000000000000e+00  2.0493043725580184e-01 5.2323157503921264e-03 0.0000000000000000e+00  2.0585155522131501e-01 6.0277167930388462e-03 0.0000000000000000e+00  2.0413267160567775e-01 4.4134174345922504e-03 0.0000000000000000e+00  1.8714555866167135e-01 -7.9806660246277000e-03 0.0000000000000000e+00  1.8784875775737364e-01 -1.8240410562897632e-04 0.0000000000000000e+00  2.3739215400753122e-01 -8.1677120883576915e-03 0.0000000000000000e+00  2.4431817154592628e-01 -2.2321712961303537e-02 0.0000000000000000e+00  2.0736828870514559e-01 4.4731003075162666e-03 0.0000000000000000e+00  2.1348475660383118e-01 1.2123238268409012e-02 0.0000000000000000e+00  2.2797486501609560e-01 8.1369835326469287e-03 0.0000000000000000e+00  2.1864988736184243e-01 1.5116797796541679e-02 0.0000000000000000e+00  2.2787959560468293e-01 1.1687675094855412e-02 0.0000000000000000e+00  2.2801595656202758e-01 1.8001540527685555e-02 0.0000000000000000e+00  2.0422799751213233e-01 5.3798057139003682e-03 0.0000000000000000e+00  1.9241555536626045e-01 2.7538349372869289e-04 0.0000000000000000e+00  1.9726588355192223e-01 4.9418372529726803e-04 0.0000000000000000e+00  1.9988119082750544e-01 2.1673272208796342e-03 0.0000000000000000e+00  1.9660041418359089e-01 -1.5514752748747639e-03 0.0000000000000000e+00  1.9455318692294704e-01 -2.8168693254843995e-03 0.0000000000000000e+00  1.9445417020850003e-01 -1.7139270699386459e-03 0.0000000000000000e+00  1.9249227573365343e-01 -2.9389858082029515e-03 0.0000000000000000e+00  1.9259477380013165e-01 -1.8725256398600565e-03 0.0000000000000000e+00  1.9076113330757175e-01 -3.0415724251100112e-03 0.0000000000000000e+00  1.9102961745226307e-01 -2.0003816278615742e-03 0.0000000000000000e+00  1.8936199947150015e-01 -3.0900809615913159e-03 0.0000000000000000e+00  1.8971949998455795e-01 -2.0845211987839353e-03 0.0000000000000000e+00  1.8825815538976168e-01 -3.0549061165344423e-03 0.0000000000000000e+00  1.9132063596099264e-01 -1.1126766321640307e-03 0.0000000000000000e+00  1.9011621767209072e-01 -1.22447424