<?xml version="1.0"?>
<VTKFile type="UnstructuredGrid"  version="0.1"  >
<UnstructuredGrid>
<Piece  NumberOfPoints="2680" NumberOfCells="5117">
<Points>
<DataArray  type="Float64"  NumberOfComponents="3"  format="ascii">0 0 0  10 0 0  10 14.99807089365807 0  15.01775016816871 14.99807089365807 0  14.990973171647 9.9980793779827 0  29.98887763094828 9.998586431911315 0  30 25 0  0 25 0  0.5 0 0  1 0 0  1.5 0 0  2 0 0  2.5 0 0  3 0 0  3.5 0 0  4 0 0  4.5 0 0  5 0 0  5.5 0 0  6 0 0  6.5 0 0  7 0 0  7.5 0 0  8 0 0  8.5 0 0  9 0 0  9.5 0 0  10 0.499935696455269 0  10 0.9998713929105381 0  10 1.499807089365807 0  10 1.999742785821076 0  10 2.499678482276345 0  10 2.999614178731614 0  10 3.499549875186883 0  10 3.999485571642152 0  10 4.499421268097421 0  10 4.999356964552691 0  10 5.499292661007959 0  10 5.999228357463228 0  10 6.499164053918498 0  10 6.999099750373766 0  10 7.499035446829035 0  10 7.998971143284304 0  10 8.498906839739574 0  10 8.998842536194843 0  10 9.498778232650112 0  10 9.998713929105381 0  10 10.49864962556065 0  10 10.99858532201592 0  10 11.49852101847119 0  10 11.99845671492646 0  10 12.49839241138173 0  10 12.998328107837 0  10 13.49826380429226 0  10 13.99819950074753 0  10 14.4981351972028 0  10.45615910619716 14.99807089365807 0  10.91231821239431 14.99807089365807 0  11.36847731859147 14.99807089365807 0  11.82463642478862 14.99807089365807 0  12.28079553098578 14.99807089365807 0  12.73695463718293 14.99807089365807 0  13.19311374338009 14.99807089365807 0  13.64927284957724 14.99807089365807 0  14.1054319557744 14.99807089365807 0  14.56159106197155 14.99807089365807 0  15.01507246851654 14.49807174209053 0  15.01239476886437 13.998072590523 0  15.0097170692122 13.49807343895546 0  15.00703936956003 12.99807428738792 0  15.00436166990785 12.49807513582039 0  15.00168397025568 11.99807598425285 0  14.99900627060351 11.49807683268531 0  14.99632857095134 10.99807768111777 0  14.99365087129917 10.49807852955024 0  15.49090332029037 9.99809627978032 0  15.99083346893375 9.99811318157794 0  16.49076361757713 9.998130083375562 0  16.9906937662205 9.998146985173182 0  17.49062391486388 9.998163886970802 0  17.99055406350725 9.998180788768423 0  18.49048421215063 9.998197690566043 0  18.99041436079401 9.998214592363665 0  19.49034450943738 9.998231494161285 0  19.99027465808076 9.998248395958905 0  20.49020480672413 9.998265297756525 0  20.99013495536751 9.998282199554145 0  21.49006510401089 9.998299101351767 0  21.98999525265426 9.998316003149387 0  22.48992540129764 9.998332904947008 0  22.98985554994102 9.998349806744628 0  23.48978569858439 9.998366708542248 0  23.98971584722776 9.99838361033987 0  24.48964599587114 9.99840051213749 0  24.98957614451452 9.99841741393511 0  25.48950629315789 9.99843431573273 0  25.98943644180127 9.99845121753035 0  26.48936659044465 9.998468119327972 0  26.98929673908803 9.998485021125592 0  27.4892268877314 9.998501922923213 0  27.98915703637478 9.998518824720833 0  28.48908718501815 9.998535726518453 0  28.98901733366153 9.998552628316075 0  29.4889474823049 9.998569530113695 0  29.98924837658334 10.4986335508476 0  29.9896191222184 10.99868066978389 0  29.98998986785345 11.49872778872018 0  29.99036061348851 11.99877490765647 0  29.99073135912357 12.49882202659276 0  29.99110210475862 12.99886914552905 0  29.99147285039368 13.49891626446534 0  29.99184359602874 13.99896338340163 0  29.9922143416638 14.49901050233792 0  29.99258508729885 14.99905762127421 0  29.99295583293391 15.4991047402105 0  29.99332657856897 15.99915185914679 0  29.99369732420402 16.49919897808308 0  29.99406806983908 16.99924609701937 0  29.99443881547414 17.49929321595566 0  29.9948095611092 17.99934033489195 0  29.99518030674426 18.49938745382824 0  29.99555105237931 18.99943457276453 0  29.99592179801437 19.49948169170082 0  29.99629254364943 19.99952881063711 0  29.99666328928448 20.4995759295734 0  29.99703403491954 20.99962304850968 0  29.9974047805546 21.49967016744598 0  29.99777552618966 21.99971728638226 0  29.99814627182471 22.49976440531855 0  29.99851701745977 22.99981152425484 0  29.99888776309483 23.49985864319113 0  29.99925850872988 23.99990576212742 0  29.99962925436494 24.49995288106371 0  29.5 25 0  29 25 0  28.5 25 0  28 25 0  27.5 25 0  27 25 0  26.5 25 0  26 25 0  25.5 25 0  25 25 0  24.5 25 0  24 25 0  23.5 25 0  23 25 0  22.5 25 0  22 25 0  21.5 25 0  21 25 0  20.5 25 0  20 25 0  19.5 25 0  19 25 0  18.5 25 0  18 25 0  17.5 25 0  17 25 0  16.5 25 0  16 25 0  15.5 25 0  15 25 0  14.5 25 0  14 25 0  13.5 25 0  13 25 0  12.5 25 0  12 25 0  11.5 25 0  11 25 0  10.5 25 0  10 25 0  9.5 25 0  9 25 0  8.5 25 0  8 25 0  7.5 25 0  7 25 0  6.5 25 0  6 25 0  5.5 25 0  5 25 0  4.5 25 0  4 25 0  3.5 25 0  3 25 0  2.5 25 0  2 25 0  1.5 25 0  1 25 0  0.5 25 0  0 24.5 0  0 24 0  0 23.5 0  0 23 0  0 22.5 0  0 22 0  0 21.5 0  0 21 0  0 20.5 0  0 20 0  0 19.5 0  0 19 0  0 18.5 0  0 18 0  0 17.5 0  0 17 0  0 16.5 0  0 16 0  0 15.5 0  0 15 0  0 14.5 0  0 14 0  0 13.5 0  0 13 0  0 12.5 0  0 12 0  0 11.5 0  0 11 0  0 10.5 0  0 10 0  0 9.5 0  0 9 0  0 8.5 0  0 8 0  0 7.5 0  0 7 0  0 6.5 0  0 6 0  0 5.5 0  0 5 0  0 4.5 0  0 4 0  0 3.5 0  0 3 0  0 2.5 0  0 2 0  0 1.5 0  0 1 0  0 0.5 0  22.23994568958984 10.43127666289109 0  21.76650905497961 24.59403720704389 0  29.56157023674826 17.74947550087692 0  19.24842575905573 24.56674445337046 0  6.200047150439197 24.52254567283311 0  0.3873449895508809 18.75346470674715 0  24.28817774761004 24.58295209855306 0  10.22840307121948 15.39378024929189 0  9.770485176823824 15.41247142830204 0  14.78967061507013 15.39311626779241 0  15.24699312028097 15.41173433681087 0  12.52847267480358 15.38631807858373 0  29.56735584879603 15.19754285565619 0  0.4834524297193656 14.27364875168812 0  15.0247877881017 15.7976116504488 0  15.46896299324279 15.79986129804628 0  9.999861320410789 15.79339900804681 0  9.540401927826188 15.79457943997619 0  9.567042986611071 5.249324812780328 0  9.541887914048509 7.714969935311601 0  9.559615150024944 10.25785037299898 0  12.27573265815357 24.52175341081808 0  9.521408966028453 12.79839838959508 0  15.24660503648176 16.19134318331474 0  15.70686611593866 16.18851412683977 0  20.24022509501634 10.43120905570061 0  9.772273053847313 16.18985939548414 0  9.309138727410179 16.19075882756592 0  0.4087342935842404 11.22276036460996 0  0.4330186726503378 8.750099164041917 0  0.426149904560857 6.238114105612047 0  24.73959643280672 10.43136117187919 0  0.3751568493644708 16.75912247553605 0  29.5773681545691 19.74455787989157 0  17.25719738847916 24.56073501358603 0  9.540292553328539 16.59058531118785 0  9.076059790353176 16.59139129696906 0  8.844026849380107 16.19329722600366 0  8.609069538721068 16.59206520521399 0  8.375726931446149 16.19094707139352 0  15.47640448527759 16.58788868177607 0  15.92960165771231 16.59371733655621 0  4.75 0.4330127018922187 0  8.139558348414369 16.59208657852118 0  9.308036792737123 16.99405816132411 0  14.27655122713832 24.52204682685834 0  7.905308820257789 16.18411918020358 0  15.70484259041968 16.99060104269802 0  16.1691142928784 16.99095663074639 0  16.37044680059708 16.57970044341446 0  16.63110824561343 16.98935126570824 0  16.84205144490467 16.56953777138322 0  17.09980618980472 16.98846197616681 0  17.3283038782772 16.5835719988645 0  17.57412003750515 16.99081293881228 0  17.79039095855827 16.575537711746 0  18.04724121406178 16.99047309506734 0  18.27038916709751 16.56837772308589 0  18.52485544504115 16.98980880425167 0  18.75827245870456 16.57793352246915 0  19.00606718923553 16.9916575829991 0  19.23425157003091 16.57291541268032 0  19.48726279355311 16.97860098376552 0  19.71617058107613 16.56413050721414 0  19.97248231624921 16.98377549207533 0  20.21259022710038 16.56882102099884 0  20.45817472792558 16.97596940001584 0  20.70019469367242 16.56748198365278 0  20.94495886035202 16.98802442669761 0  21.1874675811455 16.56806767315096 0  21.43241152764153 16.98989826045143 0  21.67562610683526 16.56813014804281 0  21.92051847783534 16.9899906353298 0  4.249999999999998 24.56698729810778 0  22.16414614636587 16.56642075468913 0  7.668384402218463 16.59090539487326 0  8.249999999999998 24.56698729810778 0  10.26514193668443 24.55644918159813 0  22.40963621928915 16.9894371171737 0  7.433207234084282 16.18129247212393 0  15.93842900242397 17.39225510127872 0  7.1873324962929 16.58548777305208 0  7.430390645948094 16.99966125696626 0  18.28922983969062 17.40555567406218 0  22.65365684115152 16.56607281268665 0  20.73360311184005 17.38379127721455 0  0.4607813115497397 4.235587746763159 0  22.89932524382756 16.98902324388996 0  22.65491383132481 17.41351843791117 0  15.47204538577921 17.39214262746817 0  15.70525224645536 17.79352516576811 0  15.23810044233777 17.79560149436703 0  0.4210907609416079 20.72884450394818 0  6.950223968969039 16.16911061433776 0  6.947494420535837 16.99473672634872 0  7.192666091249365 17.40786919171542 0  23.1452659820737 17.41311552960008 0  22.90038281333018 17.83834930126401 0  23.14394854480276 16.56448928842654 0  6.707923848166712 17.40559080525066 0  6.951831179366331 17.81889149346907 0  26.28310528296529 24.5857049317682 0  15.47719468054169 18.19540484362664 0  15.00208779199932 18.20000994403952 0  6.467479967960206 17.81826426802323 0  23.39150983109661 17.83784301939105 0  23.14612357251319 18.26403278422254 0  6.712459752356734 18.23659755766629 0  6.237642268875606 18.23896274082594 0  23.63816975023039 18.26337114486547 0  15.24350134059264 18.60488040466655 0  14.76550133813004 18.6073482028908 0  18.47685065751518 16.14045778364296 0  5.974179167605879 17.79345743738739 0  29.57733767424576 13.24909029925196 0  6.478158762395998 18.65450539189423 0  5.996333015605139 18.65576458658115 0  6.747312264097439 0.4314592390506338 0  23.39237914863318 18.69015279881484 0  23.88514147319317 18.68944543543893 0  24.13084997655953 18.26235720121239 0  21.43049695668548 16.14547760340982 0  15.00175559815863 19.01709459164678 0  14.52777614
[...]
<PointData  Vectors="u"> 
<DataArray  type="Float64"  Name="u"  NumberOfComponents="3" format="ascii">-9.0976641241831147e-01 2.7988502799860271e-01 0.0000000000000000e+00  -8.9503557422197544e-01 -1.4578697115081515e-01 0.0000000000000000e+00  -1.9466264286020438e-01 -2.8158036065047909e-02 0.0000000000000000e+00  -4.7645786894786067e-02 8.5589395579696338e-03 0.0000000000000000e+00  1.2505298190571855e-02 1.4781716832355251e-02 0.0000000000000000e+00  -3.0890609831271190e-02 4.9573488102068214e-02 0.0000000000000000e+00  -9.0895151017444706e-02 0.0000000000000000e+00 0.0000000000000000e+00  -1.7135349960079016e-01 0.0000000000000000e+00 0.0000000000000000e+00  -9.0825604328586196e-01 2.5824870698417995e-01 0.0000000000000000e+00  -9.0672655104138533e-01 2.3663936271230218e-01 0.0000000000000000e+00  -9.0519076062928205e-01 2.1510194167481481e-01 0.0000000000000000e+00  -9.0368070943403866e-01 1.9367195455933231e-01 0.0000000000000000e+00  -9.0222733549080658e-01 1.7236398707051981e-01 0.0000000000000000e+00  -9.0086487057315512e-01 1.5117135986506161e-01 0.0000000000000000e+00  -8.9961905003197318e-01 1.3008257733463122e-01 0.0000000000000000e+00  -8.9850912640526903e-01 1.0907389957659165e-01 0.0000000000000000e+00  -8.9755012256449518e-01 8.8119621263016701e-02 0.0000000000000000e+00  -8.9674954405142537e-01 6.7189475909003690e-02 0.0000000000000000e+00  -8.9610992958978486e-01 4.6254093783407481e-02 0.0000000000000000e+00  -8.9562594888289659e-01 2.5281676234690038e-02 0.0000000000000000e+00  -8.9528463975819772e-01 4.2415191831113117e-03 0.0000000000000000e+00  -8.9507038610717660e-01 -1.6885585422988781e-02 0.0000000000000000e+00  -8.9496398246461373e-01 -3.8115808505824057e-02 0.0000000000000000e+00  -8.9493727843399573e-01 -5.9463676681305776e-02 0.0000000000000000e+00  -8.9495821502584094e-01 -8.0930144631074633e-02 0.0000000000000000e+00  -8.9499761296069724e-01 -1.0249804610283272e-01 0.0000000000000000e+00  -8.9502648815500940e-01 -1.2413166176130556e-01 0.0000000000000000e+00  -8.7339465296982111e-01 -1.4579596549585366e-01 0.0000000000000000e+00  -8.5173105663092941e-01 -1.4582344690776508e-01 0.0000000000000000e+00  -8.2998929628551454e-01 -1.4586819540152432e-01 0.0000000000000000e+00  -8.0815476032059697e-01 -1.4588865466730727e-01 0.0000000000000000e+00  -7.8617601521543068e-01 -1.4587613796692947e-01 0.0000000000000000e+00  -7.6408858854548867e-01 -1.4577465019434641e-01 0.0000000000000000e+00  -7.4186450157370010e-01 -1.4557626647710242e-01 0.0000000000000000e+00  -7.1952295439196245e-01 -1.4524397149718526e-01 0.0000000000000000e+00  -6.9707928438860478e-01 -1.4475625011264182e-01 0.0000000000000000e+00  -6.7454764437427017e-01 -1.4409056568073239e-01 0.0000000000000000e+00  -6.5191796395764667e-01 -1.4323184101030842e-01 0.0000000000000000e+00  -6.2922960438576392e-01 -1.4213856826941101e-01 0.0000000000000000e+00  -6.0651521330435798e-01 -1.4081494395435956e-01 0.0000000000000000e+00  -5.8379239554601081e-01 -1.3922183630533672e-01 0.0000000000000000e+00  -5.6098779321673375e-01 -1.3735567888632660e-01 0.0000000000000000e+00  -5.3826680473785737e-01 -1.3520744693485770e-01 0.0000000000000000e+00  -5.1556818364185975e-01 -1.3272751316190240e-01 0.0000000000000000e+00  -4.9291958093769100e-01 -1.2992032255144162e-01 0.0000000000000000e+00  -4.7033059496461027e-01 -1.2673940236881900e-01 0.0000000000000000e+00  -4.4769862580983361e-01 -1.2316821808864896e-01 0.0000000000000000e+00  -4.2526572401131613e-01 -1.1919783739521403e-01 0.0000000000000000e+00  -4.0268964810024466e-01 -1.1476616111016080e-01 0.0000000000000000e+00  -3.8019102664042809e-01 -1.0985096546003649e-01 0.0000000000000000e+00  -3.5758769970012072e-01 -1.0430776646715008e-01 0.0000000000000000e+00  -3.3476840495631061e-01 -9.8060270299324306e-02 0.0000000000000000e+00  -3.1169207257782255e-01 -9.0796209994730329e-02 0.0000000000000000e+00  -2.8741524247545175e-01 -8.2104634634298193e-02 0.0000000000000000e+00  -2.6209334610856450e-01 -7.1243505038983496e-02 0.0000000000000000e+00  -2.3423605334320122e-01 -5.5396624706972417e-02 0.0000000000000000e+00  -1.7346607860376970e-01 4.7573020024673564e-04 0.0000000000000000e+00  -1.6076039202116174e-01 6.9779125150340468e-03 0.0000000000000000e+00  -1.5053659647883660e-01 1.0689156196784358e-02 0.0000000000000000e+00  -1.4124387171932151e-01 1.2950779882362448e-02 0.0000000000000000e+00  -1.3224456574004650e-01 1.4345872563084774e-02 0.0000000000000000e+00  -1.2315668146187327e-01 1.5115278191675534e-02 0.0000000000000000e+00  -1.1360395788520931e-01 1.5366786446460199e-02 0.0000000000000000e+00  -1.0304764734306207e-01 1.5078590725834170e-02 0.0000000000000000e+00  -9.0498217055323876e-02 1.4194880672317639e-02 0.0000000000000000e+00  -7.3530972620525950e-02 1.2499834985486036e-02 0.0000000000000000e+00  -1.0131473825828446e-02 3.0950212921522485e-03 0.0000000000000000e+00  -3.3971903931163849e-03 4.2131311497322719e-03 0.0000000000000000e+00  9.2968555456063610e-04 5.7326989753450387e-03 0.0000000000000000e+00  3.8278234473741466e-03 7.1870320114449113e-03 0.0000000000000000e+00  6.0175228389241107e-03 8.6491352973218916e-03 0.0000000000000000e+00  7.7125294509720098e-03 9.9966126825253403e-03 0.0000000000000000e+00  9.1042378637506208e-03 1.1251617187749616e-02 0.0000000000000000e+00  1.0315616638621510e-02 1.2443673934397425e-02 0.0000000000000000e+00  1.1395568269828621e-02 1.3610531684683631e-02 0.0000000000000000e+00  1.0384407473599967e-02 1.5944608994961251e-02 0.0000000000000000e+00  8.1141688269547162e-03 1.7292222371952711e-02 0.0000000000000000e+00  5.6745039686620707e-03 1.8885977983373350e-02 0.0000000000000000e+00  3.0210262262324985e-03 2.0598410268783493e-02 0.0000000000000000e+00  1.5852589535617754e-04 2.2380559618661325e-02 0.0000000000000000e+00  -2.8421346796951089e-03 2.4141216739680879e-02 0.0000000000000000e+00  -5.8942489481319414e-03 2.5810268592061789e-02 0.0000000000000000e+00  -8.9389968967186276e-03 2.7319855412615040e-02 0.0000000000000000e+00  -1.1875982972123614e-02 2.8667132710911831e-02 0.0000000000000000e+00  -1.4663753219897218e-02 2.9863904203426380e-02 0.0000000000000000e+00  -1.7268546042519536e-02 3.0904394462703270e-02 0.0000000000000000e+00  -1.9655196917564826e-02 3.1812598142201567e-02 0.0000000000000000e+00  -2.1811682791750980e-02 3.2607681783276957e-02 0.0000000000000000e+00  -2.3730575925681209e-02 3.3319476618443110e-02 0.0000000000000000e+00  -2.5412705972157897e-02 3.3959202485551600e-02 0.0000000000000000e+00  -2.6855471023905765e-02 3.4585030087321778e-02 0.0000000000000000e+00  -2.8078217540027456e-02 3.5194551527575356e-02 0.0000000000000000e+00  -2.9083066739814187e-02 3.5765414740111690e-02 0.0000000000000000e+00  -2.9888244555470966e-02 3.6431410106577196e-02 0.0000000000000000e+00  -3.0500062931313195e-02 3.7114057596070803e-02 0.0000000000000000e+00  -3.0942643839292450e-02 3.7888529398110590e-02 0.0000000000000000e+00  -3.1231130115081655e-02 3.8748156999898642e-02 0.0000000000000000e+00  -3.1372464811225458e-02 3.9683599952373062e-02 0.0000000000000000e+00  -3.1419288606270607e-02 4.0767181024768513e-02 0.0000000000000000e+00  -3.1386506369896955e-02 4.1974311229002012e-02 0.0000000000000000e+00  -3.1295806862450912e-02 4.3298871500597774e-02 0.0000000000000000e+00  -3.1181479724173303e-02 4.4748470364955210e-02 0.0000000000000000e+00  -3.1053384468032179e-02 4.6295126887919993e-02 0.0000000000000000e+00  -3.0956815265373964e-02 4.7920382376034264e-02 0.0000000000000000e+00  -3.2537637413772427e-02 4.9455056528475774e-02 0.0000000000000000e+00  -3.4219028175416985e-02 4.9362366291485833e-02 0.0000000000000000e+00  -3.5989749466536443e-02 4.9288165491614466e-02 0.0000000000000000e+00  -3.7886579157653796e-02 4.9204611394690290e-02 0.0000000000000000e+00  -3.9930733424147713e-02 4.9082508308736741e-02 0.0000000000000000e+00  -4.2121522657666208e-02 4.8890687695349586e-02 0.0000000000000000e+00  -4.4471858227862135e-02 4.8609781864213726e-02 0.0000000000000000e+00  -4.6951661519119392e-02 4.8202714716393237e-02 0.0000000000000000e+00  -4.9551312002205465e-02 4.7664058265506085e-02 0.0000000000000000e+00  -5.2246924909660694e-02 4.6963196961902924e-02 0.0000000000000000e+00  -5.5017336691167838e-02 4.6099400982096375e-02 0.0000000000000000e+00  -5.7825063832140956e-02 4.5053674396681662e-02 0.0000000000000000e+00  -6.0702146180150907e-02 4.3826810801520753e-02 0.0000000000000000e+00  -6.3543915474628856e-02 4.2419629824456830e-02 0.0000000000000000e+00  -6.6355624497145632e-02 4.0818239865680353e-02 0.0000000000000000e+00  -6.9106116179148636e-02 3.9036100885981008e-02 0.0000000000000000e+00  -7.1781841201496208e-02 3.7072113451496483e-02 0.0000000000000000e+00  -7.4351057952973573e-02 3.4934920642462557e-02 0.0000000000000000e+00  -7.6799785282477023e-02 3.2636368879758702e-02 0.0000000000000000e+00  -7.9111804350289860e-02 3.0173284694559373e-02 0.0000000000000000e+00  -8.1238384624597149e-02 2.7576442987626130e-02 0.0000000000000000e+00  -8.3188426413562361e-02 2.4849041023421038e-02 0.0000000000000000e+00  -8.4946973412161716e-02 2.2002946539723654e-02 0.0000000000000000e+00  -8.6497225321686730e-02 1.9050287524038576e-02 0.0000000000000000e+00  -8.7820068910324553e-02 1.6011935756980955e-02 0.0000000000000000e+00  -8.8916142412966123e-02 1.2898758249168765e-02 0.0000000000000000e+00  -8.9775612576426980e-02 9.7265718254477534e-03 0.0000000000000000e+00  -9.0392619965089641e-02 6.5100684906631377e-03 0.0000000000000000e+00  -9.0751802759625591e-02 3.2659823215584879e-03 0.0000000000000000e+00  -9.2135949586616556e-02 0.0000000000000000e+00 0.0000000000000000e+00  -9.3331760129049646e-02 0.0000000000000000e+00 0.0000000000000000e+00  -9.4476408910264612e-02 0.0000000000000000e+00 0.0000000000000000e+00  -9.5585355293239901e-02 0.0000000000000000e+00 0.0000000000000000e+00  -9.6680422166211491e-02 0.0000000000000000e+00 0.0000000000000000e+00  -9.7778029970454997e-02 0.0000000000000000e+00 0.0000000000000000e+00  -9.8893318032602193e-02 0.0000000000000000e+00 0.0000000000000000e+00  -1.0003528717472950e-01 0.0000000000000000e+00 0.0000000000000000e+00  -1.0121421877992484e-01 0.0000000000000000e+00 0.0000000000000000e+00  -1.0243553297051755e-01 0.0000000000000000e+00 0.0000000000000000e+00  -1.0370629031293373e-01 0.0000000000000000e+00 0.0000000000000000e+00  -1.0502902712270183e-01 0.0000000000000000e+00 0.0000000000000000e+00  -1.0640514630550454e-01 0.0000000000000000e+00 0.0000000000000000e+00  -1.0783229949396544e-01 0.0000000000000000e+00 0.0000000000000000e+00  -1.0931187583147761e-01 0.0000000000000000e+00 0.0000000000000000e+00  -1.1083667725231572e-01 0.0000000000000000e+00 0.0000000000000000e+00  -1.1240121016017142e-01 0.0000000000000000e+00 0.0000000000000000e+00  -1.1399870194256184e-01 0.0000000000000000e+00 0.0000000000000000e+00  -1.1561721822668450e-01 0.0000000000000000e+00 0.0000000000000000e+00  -1.1724647111404687e-01 0.0000000000000000e+00 0.0000000000000000e+00  -1.1886651187704499e-01 0.0000000000000000e+00 0.0000000000000000e+00  -1.2046758619269640e-01 0.0000000000000000e+00 0.0000000000000000e+00  -1.2203468929117192e-01 0.0000000000000000e+00 0.0000000000000000e+00  -1.2355162252465028e-01 0.0000000000000000e+00 0.0000000000000000e+00  -1.2500213563616031e-01 0.0000000000000000e+00 0.0000000000000000e+00  -1.2637274857741321e-01 0.0000000000000000e+00 0.0000000000000000e+00  -1.2764860863721625e-01 0.0000000000000000e+00 0.0000000000000000e+00  -1.2882300241379635e-01 0.0000000000000000e+00 0.0000000000000000e+00  -1.2988165807819954e-01 0.0000000000000000e+00 0.0000000000000000e+00  -1.3082459301620197e-01 0.0000000000000000e+00 0.0000000000000000e+00  -1.3164251516303885e-01 0.0000000000000000e+00 0.0000000000000000e+00  -1.3233496580991841e-01 0.0000000000000000e+00 0.0000000000000000e+00  -1.3290436318549220e-01 0.0000000000000000e+00 0.0000000000000000e+00  -1.3335764849964812e-01 0.0000000000000000e+00 0.0000000000000000e+00  -1.3370783650977325e-01 0.0000000000000000e+00 0.0000000000000000e+00  -1.3396416442373682e-01 0.0000000000000000e+00 0.0000000000000000e+00  -1.3414264220749400e-01 0.0000000000000000e+00 0.0000000000000000e+00  -1.3426406619219231e-01 0.0000000000000000e+00 0.0000000000000000e+00  -1.3435377510960492e-01 0.0000000000000000e+00 0.0000000000000000e+00  -1.3442989484172674e-01 0.0000000000000000e+00 0.0000000000000000e+00  -1.3452337632246250e-01 0.0000000000000000e+00 0.0000000000000000e+00  -1.3466554556062052e-01 0.0000000000000000e+00 0.0000000000000000e+00  -1.3488341274783175e-01 0.0000000000000000e+00 0.0000000000000000e+00  -1.3520919396038555e-01 0.0000000000000000e+00 0.0000000000000000e+00  -1.3566603652408646e-01 0.0000000000000000e+00 0.0000000000000000e+00  -1.3629292829936102e-01 0.0000000000000000e+00 0.0000000000000000e+00  -1.3711135841316513e-01 0.0000000000000000e+00 0.0000000000000000e+00  -1.3817647690923451e-01 0.0000000000000000e+00 0.0000000000000000e+00  -1.3944228692228389e-01 0.0000000000000000e+00 0.0000000000000000e+00  -1.4096429979117062e-01 0.0000000000000000e+00 0.0000000000000000e+00  -1.4274093316810493e-01 0.0000000000000000e+00 0.0000000000000000e+00  -1.4479989960908574e-01 0.0000000000000000e+00 0.0000000000000000e+00  -1.4716470425388270e-01 0.0000000000000000e+00 0.0000000000000000e+00  -1.4982810135169677e-01 0.0000000000000000e+00 0.0000000000000000e+00  -1.5277044574880258e-01 0.0000000000000000e+00 0.0000000000000000e+00  -1.5597854901804742e-01 0.0000000000000000e+00 0.0000000000000000e+00  -1.5947038689952239e-01 0.0000000000000000e+00 0.0000000000000000e+00  -1.6321767447416707e-01 0.0000000000000000e+00 0.0000000000000000e+00  -1.6721040801195552e-01 0.0000000000000000e+00 0.0000000000000000e+00  -1.7159295038951539e-01 7.5578287987004659e-03 0.0000000000000000e+00  -1.7220246828063929e-01 1.5108836602955212e-02 0.0000000000000000e+00  -1.7325301265478671e-01 2.2736954855538814e-02 0.0000000000000000e+00  -1.7476764497742475e-01 3.0433934764631076e-02 0.0000000000000000e+00  -1.7673836080987690e-01 3.8168158282789050e-02 0.0000000000000000e+00  -1.7918716039368884e-01 4.6081849212724499e-02 0.0000000000000000e+00  -1.8214136715423498e-01 5.4143161868517781e-02 0.0000000000000000e+00  -1.8567396287386823e-01 6.2250278130748890e-02 0.0000000000000000e+00  -1.8978260441174466e-01 7.0564301873753593e-02 0.0000000000000000e+00  -1.9453290992245209e-01 7.9003255588629445e-02 0.0000000000000000e+00  -1.9995209405592099e-01 8.7596656133854339e-02 0.0000000000000000e+00  -2.0610223842950898e-01 9.6346618900416736e-02 0.0000000000000000e+00  -2.1303813522100157e-01 1.0526130671356974e-01 0.0000000000000000e+00  -2.2075684018312142e-01 1.1430481062655978e-01 0.0000000000000000e+00  -2.2937997049897774e-01 1.2333882651892156e-01 0.0000000000000000e+00  -2.3891938795473339e-01 1.3251176239882728e-01 0.0000000000000000e+00  -2.4937909393046986e-01 1.4169585235490773e-01 0.0000000000000000e+00  -2.6076054357291339e-01 1.5081546191740422e-01 0.0000000000000000e+00  -2.7320437676932940e-01 1.5991191518612094e-01 0.0000000000000000e+00  -2.8657051109818432e-01 1.6875357331020929e-01 0.0000000000000000e+00  -3.0095661814576241e-01 1.7753667622169025e-01 0.0000000000000000e+00  -3.1618248379799668e-01 1.8595262589191403e-01 0.0000000000000000e+00  -3.3242577989650285e-01 1.9419438394055830e-01 0.0000000000000000e+00  -3.4947162434415002e-01 2.0205976214813895e-01 0.0000000000000000e+00  -3.6734396726448021e-01 2.0955628911288235e-01 0.0000000000000000e+00  -3.8600488321551146e-01 2.1666198859775126e-01 0.0000000000000000e+00  -4.0527639953390643e-01 2.2324695328122934e-01 0.0000000000000000e+00  -4.2524945259408148e-01 2.2947697061073277e-01 0.0000000000000000e+00  -4.4569244408271586e-01 2.3525101868139525e-01 0.0000000000000000e+00  -4.6666135322545793e-01 2.4058953362154745e-01 0.0000000000000000e+00  -4.8802998254565927e-01 2.4544780462622631e-01 0.0000000000000000e+00  -5.0970840351528779e-01 2.4987078570967752e-01 0.0000000000000000e+00  -5.3169689260344244e-01 2.5386414926669609e-01 0.0000000000000000e+00  -5.5389910814868770e-01 2.5744665193774136e-01 0.0000000000000000e+00  -5.7625285422930317e-01 2.6065054506010099e-01 0.0000000000000000e+00  -5.9878069256682365e-01 2.6350563331296023e-01 0.0000000000000000e+00  -6.2135963340147093e-01 2.6600236169220259e-01 0.0000000000000000e+00  -6.4399072912112976e-01 2.6819122200857942e-01 0.0000000000000000e+00  -6.6659285212589992e-01 2.7009507784332953e-01 0.0000000000000000e+00  -6.8920015778169497e-01 2.7173791002839948e-01 0.0000000000000000e+00  -7.1175923275270947e-01 2.7313083294120588e-01 0.0000000000000000e+00  -7.3419742780707420e-01 2.7432305609308394e-01 0.0000000000000000e+00  -7.5658679526517114e-01 2.7532412214826635e-01 0.0000000000000000e+00  -7.7881028897965066e-01 2.7619686352793060e-01 0.0000000000000000e+00  -8.0092054270173829e-01 2.7693385046686642e-01 0.0000000000000000e+00  -8.2289691932406761e-01 2.7758216727387219e-01 0.0000000000000000e+00  -8.4474580510016006e-01 2.7816851317081848e-01 0.0000000000000000e+00  -8.6648767652641601e-01 2.7872418686116424e-01 0.0000000000000000e+00  -8.8814127475547866e-01 2.7929516355411210e-01 0.0000000000000000e+00  -2.5398248175962430e-02 3.3834362335028109e-02 0.0000000000000000e+00  -1.1147167411749243e-01 1.3583000739329572e-03 0.0000000000000000e+00  -6.8347847022976291e-02 3.7733444731594290e-02 0.0000000000000000e+00  -1.1958653513078535e-01 1.0060828365394314e-03 0.0000000000000000e+00  -1.3783984820057710e-01 9.3525598878477039e-04 0.0000000000000000e+00  -2.0577981763807288e-01 9.5272911177331332e-02 0.0000000000000000e+00  -1.0415865247951611e-01 1.6221357512358290e-03 0.0000000000000000e+00  -1.8335495446264982e-01 -1.8109981042640683e-02 0.0000000000000000e+00  -1.8987101138110613e-01 -2.7337358644708952e-02 0.0000000000000000e+00  -7.6083017759471391e-02 4.6438619513846828e-03 0.0000000000000000e+00  -6.9956451961788027e-02 1.2019508426746473e-02 0.0000000000000000e+00  -1.2833882171212463e-01 1.0106784215286635e-02 0.0000000000000000e+00  -5.3631381415217123e-02 4.4443218031346293e-02 0.0000000000000000e+00  -3.0335015911258312e-01 1.6693589462411643e-01 0.0000000000000000e+00  -8.5109805045373965e-02 7.0109995892533141e-03 0.0000000000000000e+00  -7.9848330795176600e-02 1.2651703593400791e-02 0.0000000000000000e+00  -1.8107523898390238e-01 -2.1856668127830600e-02 0.0000000000000000e+00  -1.8584357147223213e-01 -2.5371899155412242e-02 0.0000000000000000e+00  -6.6294404297962151e-01 -1.2428303036707121e-01 0.0000000000000000e+00  -5.5040875637930009e-01 -1.1594152394714455e-01 0.0000000000000000e+00  -4.3467589311137578e-01 -1.0176585013286892e-01 0.0000000000000000e+00  -1.3387275928174835e-01 -1.2256020993057868e-03 0.0000000000000000e+00  -3.1819319421572878e-01 -7.2944463628601325e-02 0.0000000000000000e+00  -9.1431500477771641e-02 8.1726286588701506e-03 0.0000000000000000e+00  -8.6704249971241903e-02 1.3141244716063070e-02 0.0000000000000000e+00  -1.7122097802874159e-02 3.0773014440361235e-02 0.0000000000000000e+00  -1.7782422116450264e-01 -2.2139935615382279e-02 0.0000000000000000e+00  -1.8169107846451041e-01 -2.2683672734477713e-02 0.0000000000000000e+00  -4.1331397567807709e-01 2.1081872140981137e-01 0.0000000000000000e+00  -5.1823387664887388e-01 2.3325154947113991e-01 0.0000000000000000e+00  -6.3141506374364242e-01 2.4817932850009408e-01 0.0000000000000000e+00  -3.0998699644394008e-02 3.6691636349395568e-02 0.0000000000000000e+00  -2.4023553655491103e-01 1.2912136312471623e-01 0.0000000000000000e+00  -7.8761543798443009e-02 2.9643140549627203e-02 0.0000000000000000e+00  -1.2561692027792626e-01 4.2854754085475686e-04 0.0000000000000000e+00  -1.7441811488880729e-01 -2.0937418364219910e-02 0.0000000000000000e+00  -1.7771195713709453e-01 -1.9795392922335175e-02 0.0000000000000000e+00  -1.8543135450391821e-01 -1.9912821212229783e-02 0.0000000000000000e+00  -1.8099595610694283e-01 -1.6375100552810513e-02 0.0