<?xml version="1.0"?>
<VTKFile type="UnstructuredGrid"  version="0.1"  >
<UnstructuredGrid>
<Piece  NumberOfPoints="1326" NumberOfCells="2469">
<Points>
<DataArray  type="Float64"  NumberOfComponents="3"  format="ascii">40 0 0  5 0 0  6.668259401307813 2.185762999752714 0  19.29961045174919 7.736986743020862 0  18.79772391637336 5.291896844662914 0  33.33174059869219 10.31423700024729 0  35 12.5 0  40 12.5 0  39.5 0 0  39 0 0  38.5 0 0  38 0 0  37.5 0 0  37 0 0  36.5 0 0  36 0 0  35.5 0 0  35 0 0  34.5 0 0  34 0 0  33.5 0 0  33 0 0  32.5 0 0  32 0 0  31.5 0 0  31 0 0  30.5 0 0  30 0 0  29.5 0 0  29 0 0  28.5 0 0  28 0 0  27.5 0 0  27 0 0  26.5 0 0  26 0 0  25.5 0 0  25 0 0  24.5 0 0  24 0 0  23.5 0 0  23 0 0  22.5 0 0  22 0 0  21.5 0 0  21 0 0  20.5 0 0  20 0 0  19.5 0 0  19 0 0  18.5 0 0  18 0 0  17.5 0 0  17 0 0  16.5 0 0  16 0 0  15.5 0 0  15 0 0  14.5 0 0  14 0 0  13.5 0 0  13 0 0  12.5 0 0  12 0 0  11.5 0 0  11 0 0  10.5 0 0  10 0 0  9.5 0 0  9 0 0  8.5 0 0  8 0 0  7.5 0 0  7 0 0  6.5 0 0  6 0 0  5.5 0 0  5.278043233551302 0.364293833292119 0  5.556086467102604 0.728587666584238 0  5.834129700653906 1.092881499876357 0  6.112172934205208 1.457175333168476 0  6.390216167756511 1.821469166460595 0  7.119379081680719 2.384020990583719 0  7.570498762053625 2.582278981414725 0  8.021618442426531 2.78053697224573 0  8.472738122799438 2.978794963076735 0  8.923857803172345 3.17705295390774 0  9.374977483545251 3.375310944738746 0  9.826097163918156 3.573568935569751 0  10.27721684429106 3.771826926400756 0  10.72833652466397 3.970084917231762 0  11.17945620503687 4.168342908062767 0  11.63057588540978 4.366600898893772 0  12.08169556578269 4.564858889724777 0  12.53281524615559 4.763116880555783 0  12.9839349265285 4.961374871386788 0  13.43505460690141 5.159632862217793 0  13.88617428727432 5.357890853048799 0  14.33729396764722 5.556148843879804 0  14.78841364802013 5.754406834710809 0  15.23953332839303 5.952664825541815 0  15.69065300876594 6.15092281637282 0  16.14177268913885 6.349180807203825 0  16.59289236951175 6.54743879803483 0  17.04401204988466 6.745696788865836 0  17.49513173025757 6.943954779696841 0  17.94625141063047 7.142212770527847 0  18.39737109100338 7.340470761358851 0  18.84849077137628 7.538728752189857 0  19.19923314467402 7.247968763349272 0  19.09885583759885 6.758950783677682 0  18.99847853052369 6.269932804006093 0  18.89810122344852 5.780914824334504 0  19.26656316419009 5.4539078174237 0  19.73540241200683 5.615918790184486 0  20.20424165982357 5.777929762945273 0  20.6730809076403 5.939940735706059 0  21.14192015545704 6.101951708466845 0  21.61075940327378 6.263962681227631 0  22.07959865109051 6.425973653988417 0  22.54843789890725 6.587984626749203 0  23.01727714672398 6.74999559950999 0  23.48611639454072 6.912006572270776 0  23.95495564235746 7.074017545031563 0  24.42379489017419 7.236028517792349 0  24.89263413799093 7.398039490553135 0  25.36147338580767 7.560050463313921 0  25.8303126336244 7.722061436074707 0  26.29915188144114 7.884072408835493 0  26.76799112925788 8.046083381596279 0  27.23683037707461 8.208094354357065 0  27.70566962489135 8.370105327117852 0  28.17450887270808 8.532116299878638 0  28.64334812052482 8.694127272639424 0  29.11218736834156 8.85613824540021 0  29.58102661615829 9.018149218160996 0  30.04986586397503 9.180160190921782 0  30.51870511179177 9.342171163682568 0  30.9875443596085 9.504182136443355 0  31.45638360742524 9.666193109204141 0  31.92522285524198 9.828204081964927 0  32.39406210305872 9.990215054725713 0  32.86290135087545 10.1522260274865 0  33.60978383224349 10.6785308335394 0  33.88782706579479 11.04282466683152 0  34.16587029934609 11.40711850012364 0  34.4439135328974 11.77141233341576 0  34.7219567664487 12.13570616670788 0  35.5 12.5 0  36 12.5 0  36.5 12.5 0  37 12.5 0  37.5 12.5 0  38 12.5 0  38.5 12.5 0  39 12.5 0  39.5 12.5 0  40 12 0  40 11.5 0  40 11 0  40 10.5 0  40 10 0  40 9.5 0  40 9 0  40 8.5 0  40 8 0  40 7.5 0  40 7 0  40 6.5 0  40 6 0  40 5.5 0  40 5 0  40 4.5 0  40 4 0  40 3.5 0  40 3 0  40 2.5 0  40 2 0  40 1.5 0  40 1 0  40 0.5 0  33.23228569057094 9.842660710216059 0  34.77622216089409 0.4298289104773207 0  31.38843985388206 9.194383011204462 0  39.56698729810778 5.25 0  32.74053963206852 0.4087663451470127 0  29.51138246303972 8.54861323979504 0  30.74986524804145 0.4330309841965523 0  27.63411705008721 7.902751481824252 0  28.82221752628825 0.4805823732126724 0  25.75676287274432 7.256829349807152 0  39.58642952886229 7.243487716217407 0  26.80450602457299 0.4342411526091814 0  23.87953554847818 6.611015030263621 0  34.41563786136405 11.00893651095799 0  24.75076675811996 0.4325128591106235 0  22.00222691420253 5.965245456552625 0  36.78852679081764 0.4895705447912433 0  39.59100594496064 9.249787737908637 0  15.18566994476949 5.462854726776259 0  22.81948417815335 0.4356092113090959 0  16.67265835133768 0.4385362003435134 0  20.11248476095781 5.297210893421308 0  39.50967910426508 3.250364485367151 0  14.73352842818229 0.3941756861310721 0  21.24861147872566 0.4173401610038141 0  36.72549703472909 12.02597438063142 0  18.25738460061386 0.4286725131457589 0  19.77498247833519 0.4042011227441247 0  13.84206369106765 4.893941093869591 0  12.47522441291524 4.325812040661271 0  13.24973489429633 0.4328823150721735 0  11.20488017588441 3.686237377072813 0  11.75030685404967 0.4328760880663243 0  9.710873337811456 3.069890152460188 0  16.49935712876129 6.037628475566096 0  38.26473426070231 0.3980641475208588 0  39.56559779632724 10.74382375912231 0  9.27269568303948 0.4064589220798283 0  7.966248867307261 2.309087098665669 0  38.26282457674597 12.07868773220534 0  39.56698729810778 1.75 0  35.80079609943603 12.04093676153427 0  39.57754641972478 8.268081448517759 0  10.27078813419138 0.4291044070591599 0  15.7496032107575 0.4480297409920153 0  23.7605352947792 0.3994346727187299 0  25.73990501865266 0.4272177354786475 0  39.57069376873793 6.244026952715329 0  27.75076221433774 0.4042966625655002 0  29.70950744020315 0.4638423402748795 0  31.75000588214932 0.4195519043868314 0  33.73390585963221 0.4237057357015619 0  35.74925523444618 0.4220039385384498 0  39.58043665190081 4.264609020501567 0  32.32743819384569 9.516995173403194 0  28.57276111131594 8.225693448256058 0  30.44998592141133 8.871510281739386 0  26.69545104380827 7.579794690907194 0  24.81813947841731 6.933892939625935 0  22.94089449236995 6.288136169930312 0  21.0635305961248 5.642338551257017 0  19.17253394230931 4.966791098369462 0  18.70358531700698 4.804775862635633 0  19.07847298898194 4.479481366703994 0  18.60919931638995 4.317310240352408 0  18.98439771319389 3.991784089910585 0  18.51480813126922 3.829446842060388 0  18.89024411248681 3.503833366653967 0  19.36006959402918 3.666235409641161 0  18.4202876952163 3.341570157789182 0  18.04491889193887 3.667157657252921 0  17.95036846642635 3.179205811329378 0  17.57522347830571 3.504829221540138 0  17.4805076957444 3.017049245929728 0  17.10546404901248 3.342541466733301 0  19.26574247382159 3.177965715561172 0  19.73726003223607 3.341837578773084 0  17.01074205429879 2.854838806118798 0  16.63552752039673 3.180307245293943 0  16.54094745520643 2.692771248014802 0  16.16579551233498 3.01809103709826 0  19.64183290278407 2.851951304553106 0  20.11364425034447 3.016123718791198 0  16.73173024982344 3.669068871118768 0  16.06942539299653 2.530674374876003 0  15.69572109087585 2.856463103005259 0  17.85492240683204 2.690920157994957 0  20.01819792367233 2.525934751557368 0  20.48882400777842 2.688771092797716 0  20.58046135417634 3.191708491560323 0  20.95868840553121 2.853969975436524 0  21.04910134893006 3.355737682759 0  21.42875890085236 3.017413802818031 0  21.52229854706144 3.508134249465112 0  21.89976558689028 3.178055116952474 0  21.99328461917551 3.668825231499075 0  22.37023021462416 3.340585087584127 0  22.46467839880646 3.828632688990698 0  22.84079478701782 3.502781486892872 0  22.94161547041004 4.002884196649318 0  23.31186284438417 3.668765126247875 0  23.21701443732358 3.176674643365479 0  23.68760227838808 3.34006909691984 0  23.78131047072756 3.830353437550493 0  24.15790683220087 3.502870923957472 0  24.25196497125417 3.991671031996049 0  24.6283458761726 3.665405320698439 0  24.7223992260806 4.154242022968158 0  25.09867482604795 3.828390825806806 0  25.19898530564529 4.323711974658755 0  25.57005357861936 3.992355677525974 0  25.68283838717964 4.501106856187967 0  26.04613799027935 4.161457462145124 0  25.94658881442354 3.666701588970786 0  26.41704902900025 3.829773929268634 0  26.51895572004222 4.332100887314851 0  26.88784325629987 3.994159586922232 0  26.98377646133785 4.490122714713789 0  27.357359564377 4.156549462928355 0  27.45047340161159 4.64323420281838 0  27.82694574554983 4.317804243891454 0  27.92095883934247 4.805791861886287 0  28.29711437252338 4.480437049978319 0  28.39128165423817 4.968647677800968 0  28.76740670203107 4.643346125628113 0  28.86138699365394 5.132064630242165 0  29.23769653234142 4.806432231169444 0  29.14369555150958 4.317584548653519 0  29.6140429525874 4.48067475258488 0  29.70799627394554 4.969532216608622 0  30.08437284870433 4.643789113647316 0  30.17825504431658 5.132616136697528 0  30.55466284841132 4.806896584393804 0  30.64853678963614 5.295705123286551 0  31.02492458450067 4.970038136373711 0  31.11880860617503 5.458797850527059 0  31.49520536445731 5.133118090424149 0  31.59925197595946 5.627390931730161 0  31.97195207398904 5.300417896742204 0  31.87195910870247 4.807370139363009 0  32.34315894410692 4.971208186740847 0  32.43920860380693 5.460758023854652 0  32.81323512916904 5.134030190789018 0  32.91014980805714 5.62243031644897 0  33.28374648886411 5.296939313095574 0  33.37775623672982 5.785972323236318 0  33.75359754318555 5.460197216784774 0  33.84777729395707 5.949131331832507 0  34.22399064264268 5.623581396236432 0  34.32039345178119 6.115446740330432 0  34.69499213248758 5.787659536275026 0  34.80023906851678 6.28
[...]
<PointData  Vectors="u"> 
<DataArray  type="Float64"  Name="u"  NumberOfComponents="3" format="ascii">2.6481177141111367e-01 -2.0819243565275923e-04 0.0000000000000000e+00  3.3234803463452961e-01 -6.9739937453625311e-01 0.0000000000000000e+00  2.2711964818943708e-01 -6.1708542398450128e-01 0.0000000000000000e+00  -1.0476088758977130e-01 1.6128625154958581e-02 0.0000000000000000e+00  9.3416471692815486e-02 -1.8334562819212141e-02 0.0000000000000000e+00  3.1094667644000179e-01 2.2741867473209641e-02 0.0000000000000000e+00  3.2972034873563461e-01 0.0000000000000000e+00 0.0000000000000000e+00  3.3512013792641565e-01 0.0000000000000000e+00 0.0000000000000000e+00  2.6331071430941871e-01 2.8578861084654250e-03 0.0000000000000000e+00  2.6181127689315092e-01 5.9303904823805233e-03 0.0000000000000000e+00  2.6031754276034674e-01 9.0104155356472218e-03 0.0000000000000000e+00  2.5883405732277537e-01 1.2099488163326020e-02 0.0000000000000000e+00  2.5736533832045350e-01 1.5193005217028342e-02 0.0000000000000000e+00  2.5591476501374055e-01 1.8295873242245755e-02 0.0000000000000000e+00  2.5448479720461520e-01 2.1395854169201766e-02 0.0000000000000000e+00  2.5308274576972800e-01 2.4496099585876230e-02 0.0000000000000000e+00  2.5171380639823709e-01 2.7593356567533381e-02 0.0000000000000000e+00  2.5038702653171363e-01 3.0684348282374378e-02 0.0000000000000000e+00  2.4910855201485632e-01 3.3761916354152814e-02 0.0000000000000000e+00  2.4788281240588403e-01 3.6818651580901557e-02 0.0000000000000000e+00  2.4673124463736459e-01 3.9848565738043767e-02 0.0000000000000000e+00  2.4565377058320678e-01 4.2836361974063784e-02 0.0000000000000000e+00  2.4466849310814084e-01 4.5778070600468380e-02 0.0000000000000000e+00  2.4377662721643900e-01 4.8642551646517478e-02 0.0000000000000000e+00  2.4299905795693433e-01 5.1433555308832958e-02 0.0000000000000000e+00  2.4234241862394618e-01 5.4114640488777059e-02 0.0000000000000000e+00  2.4181556117712688e-01 5.6670926631573637e-02 0.0000000000000000e+00  2.4143381752442059e-01 5.9092248828136955e-02 0.0000000000000000e+00  2.4121228154872645e-01 6.1310530952843320e-02 0.0000000000000000e+00  2.4119735498478242e-01 6.3378877367685618e-02 0.0000000000000000e+00  2.4131237888615384e-01 6.5195269745413564e-02 0.0000000000000000e+00  2.4166048565410692e-01 6.6744493568507729e-02 0.0000000000000000e+00  2.4223981866442071e-01 6.7999171035866682e-02 0.0000000000000000e+00  2.4305698754131141e-01 6.8934320224068105e-02 0.0000000000000000e+00  2.4414259858371218e-01 6.9481379466787507e-02 0.0000000000000000e+00  2.4546680887321073e-01 6.9577018226994469e-02 0.0000000000000000e+00  2.4716382528226544e-01 6.9219231569931622e-02 0.0000000000000000e+00  2.4920145217362755e-01 6.8283662696005068e-02 0.0000000000000000e+00  2.5162178730693852e-01 6.6685618961211765e-02 0.0000000000000000e+00  2.5447576119034049e-01 6.4325489059286658e-02 0.0000000000000000e+00  2.5782183883941973e-01 6.1129440568157362e-02 0.0000000000000000e+00  2.6162482359999889e-01 5.7013623473853171e-02 0.0000000000000000e+00  2.6593373326044384e-01 5.1748350836342924e-02 0.0000000000000000e+00  2.7060638864022035e-01 4.5179684342841177e-02 0.0000000000000000e+00  2.7593019216764236e-01 3.7159623408439035e-02 0.0000000000000000e+00  2.8168229942233958e-01 2.7464673439905107e-02 0.0000000000000000e+00  2.8771289782090703e-01 1.6064743364912593e-02 0.0000000000000000e+00  2.9391921989442865e-01 2.6791903943578759e-03 0.0000000000000000e+00  3.0020545034519297e-01 -1.2683532719838287e-02 0.0000000000000000e+00  3.0618578094615800e-01 -2.9997111847531094e-02 0.0000000000000000e+00  3.1179665036883591e-01 -4.9203961433326157e-02 0.0000000000000000e+00  3.1676887855644914e-01 -6.9996243771510772e-02 0.0000000000000000e+00  3.2104455203829413e-01 -9.2203154308459087e-02 0.0000000000000000e+00  3.2456039198625453e-01 -1.1550271261558064e-01 0.0000000000000000e+00  3.2722186597884917e-01 -1.3951123849153052e-01 0.0000000000000000e+00  3.2925122102025606e-01 -1.6405966205725958e-01 0.0000000000000000e+00  3.3064580180682268e-01 -1.8869980680258649e-01 0.0000000000000000e+00  3.3155417449179125e-01 -2.1349994703475914e-01 0.0000000000000000e+00  3.3211137319354878e-01 -2.3824355692500418e-01 0.0000000000000000e+00  3.3240467124480411e-01 -2.6286574959840892e-01 0.0000000000000000e+00  3.3253565262125251e-01 -2.8736870411122817e-01 0.0000000000000000e+00  3.3256307621642617e-01 -3.1176326663327331e-01 0.0000000000000000e+00  3.3254009111636812e-01 -3.3605663758045873e-01 0.0000000000000000e+00  3.3249544425489935e-01 -3.6027078589343386e-01 0.0000000000000000e+00  3.3244889113289561e-01 -3.8442420323045046e-01 0.0000000000000000e+00  3.3241035179024120e-01 -4.0853554605188858e-01 0.0000000000000000e+00  3.3238250256484325e-01 -4.3262300332965875e-01 0.0000000000000000e+00  3.3236513668227263e-01 -4.5669815208730974e-01 0.0000000000000000e+00  3.3235521434661763e-01 -4.8076754175384706e-01 0.0000000000000000e+00  3.3235023952135795e-01 -5.0483541563793599e-01 0.0000000000000000e+00  3.3234831951265009e-01 -5.2890397691964885e-01 0.0000000000000000e+00  3.3234778789114500e-01 -5.5297336246258189e-01 0.0000000000000000e+00  3.3234777149492367e-01 -5.7704382800418919e-01 0.0000000000000000e+00  3.3234790630402949e-01 -6.0111467390941142e-01 0.0000000000000000e+00  3.3234799946550758e-01 -6.2518580017645242e-01 0.0000000000000000e+00  3.3234803082353293e-01 -6.4925699674999682e-01 0.0000000000000000e+00  3.3234803466087537e-01 -6.7332819085157380e-01 0.0000000000000000e+00  3.1481006823432561e-01 -6.8401371561001811e-01 0.0000000000000000e+00  2.9727210596550918e-01 -6.7062806121079976e-01 0.0000000000000000e+00  2.7973414016033443e-01 -6.5724242659768461e-01 0.0000000000000000e+00  2.6219612447815105e-01 -6.4385681474777923e-01 0.0000000000000000e+00  2.4465798760611626e-01 -6.3047118359762622e-01 0.0000000000000000e+00  2.1757466438429099e-01 -5.9536697943850869e-01 0.0000000000000000e+00  2.0802949925846489e-01 -5.7364780010387528e-01 0.0000000000000000e+00  1.9848474627616061e-01 -5.5192770687540427e-01 0.0000000000000000e+00  1.8894105328996996e-01 -5.3020560678314488e-01 0.0000000000000000e+00  1.7940069760370439e-01 -5.0848291412685054e-01 0.0000000000000000e+00  1.6986628598146691e-01 -4.8675880452085568e-01 0.0000000000000000e+00  1.6034122458513347e-01 -4.6503731705291484e-01 0.0000000000000000e+00  1.5083369836967189e-01 -4.4332629248298988e-01 0.0000000000000000e+00  1.4133906453978060e-01 -4.2163159610760087e-01 0.0000000000000000e+00  1.3187358213372435e-01 -3.9997765881104019e-01 0.0000000000000000e+00  1.2242979043429619e-01 -3.7837501461410200e-01 0.0000000000000000e+00  1.1301830109351022e-01 -3.5686930328238453e-01 0.0000000000000000e+00  1.0359811312799452e-01 -3.3548656326854964e-01 0.0000000000000000e+00  9.4133319634744514e-02 -3.1426974654696699e-01 0.0000000000000000e+00  8.4560350348320268e-02 -2.9325603479487944e-01 0.0000000000000000e+00  7.4775762021292921e-02 -2.7248411225808028e-01 0.0000000000000000e+00  6.4620240417567240e-02 -2.5194186925381951e-01 0.0000000000000000e+00  5.3893240820740429e-02 -2.3163247163864273e-01 0.0000000000000000e+00  4.2223140782627677e-02 -2.1126260299675065e-01 0.0000000000000000e+00  2.9397467642799876e-02 -1.9114609992636936e-01 0.0000000000000000e+00  1.4713895309163729e-02 -1.7028119363521277e-01 0.0000000000000000e+00  -1.8015387921893437e-03 -1.4812540781349676e-01 0.0000000000000000e+00  -2.0860450981195055e-02 -1.2389444677992958e-01 0.0000000000000000e+00  -4.1568206014439738e-02 -9.6122060216405042e-02 0.0000000000000000e+00  -6.1816265972054550e-02 -6.5424044361620734e-02 0.0000000000000000e+00  -7.9527805404054866e-02 -3.4052706987671162e-02 0.0000000000000000e+00  -9.3729263597284562e-02 -5.8722356056585198e-03 0.0000000000000000e+00  -7.7166044932287861e-02 1.5630896029763797e-02 0.0000000000000000e+00  -4.3663347927779296e-02 1.2179346049709754e-02 0.0000000000000000e+00  -8.4892294242540738e-03 6.3204172779692857e-03 0.0000000000000000e+00  2.8090264803105326e-02 -1.0306866555104812e-03 0.0000000000000000e+00  1.2202701511704651e-01 -1.2898777326080245e-02 0.0000000000000000e+00  1.3870073427865626e-01 -3.3539666716434816e-03 0.0000000000000000e+00  1.5103923773524844e-01 5.6352172539528896e-03 0.0000000000000000e+00  1.6136503198019525e-01 1.3829049764501809e-02 0.0000000000000000e+00  1.7054783871697873e-01 2.1168834701740975e-02 0.0000000000000000e+00  1.7902542538187141e-01 2.7626446416036579e-02 0.0000000000000000e+00  1.8699493314240129e-01 3.3233798074237111e-02 0.0000000000000000e+00  1.9457443204045000e-01 3.8022281163650112e-02 0.0000000000000000e+00  2.0181425928030280e-01 4.2051362808562281e-02 0.0000000000000000e+00  2.0876313343189251e-01 4.5369532145009779e-02 0.0000000000000000e+00  2.1543823285072633e-01 4.8037633471011670e-02 0.0000000000000000e+00  2.2186931900005857e-01 5.0101789429834849e-02 0.0000000000000000e+00  2.2806594486754797e-01 5.1613423857595583e-02 0.0000000000000000e+00  2.3404132328660390e-01 5.2618219339244182e-02 0.0000000000000000e+00  2.3981385049023382e-01 5.3156567666041085e-02 0.0000000000000000e+00  2.4538719674044027e-01 5.3269583434231785e-02 0.0000000000000000e+00  2.5077657817279619e-01 5.2992130790885120e-02 0.0000000000000000e+00  2.5598495728294568e-01 5.2360631460984970e-02 0.0000000000000000e+00  2.6102466722494133e-01 5.1405475404449286e-02 0.0000000000000000e+00  2.6589862307905221e-01 5.0158559232953544e-02 0.0000000000000000e+00  2.7061740473322898e-01 4.8645513421232044e-02 0.0000000000000000e+00  2.7518437120862960e-01 4.6893067187033712e-02 0.0000000000000000e+00  2.7960896929800672e-01 4.4921517315074690e-02 0.0000000000000000e+00  2.8389516408448728e-01 4.2751957508507264e-02 0.0000000000000000e+00  2.8805193551444086e-01 4.0398829937150410e-02 0.0000000000000000e+00  2.9208448646755064e-01 3.7876614209260473e-02 0.0000000000000000e+00  2.9600287514955054e-01 3.5192482799710052e-02 0.0000000000000000e+00  2.9981668231790154e-01 3.2351357623740494e-02 0.0000000000000000e+00  3.0354515100605367e-01 2.9347087820294066e-02 0.0000000000000000e+00  3.0722905972136133e-01 2.6155061930122840e-02 0.0000000000000000e+00  3.1596614214941926e-01 2.0087594011733073e-02 0.0000000000000000e+00  3.1995646209259243e-01 1.7050187621441695e-02 0.0000000000000000e+00  3.2323123273204579e-01 1.3727185180936127e-02 0.0000000000000000e+00  3.2589629418647575e-01 9.8916575237326838e-03 0.0000000000000000e+00  3.2797216888260061e-01 5.6818251931938617e-03 0.0000000000000000e+00  3.2969986449333938e-01 0.0000000000000000e+00 0.0000000000000000e+00  3.2978245320845190e-01 0.0000000000000000e+00 0.0000000000000000e+00  3.3007110369905118e-01 0.0000000000000000e+00 0.0000000000000000e+00  3.3057407083187773e-01 0.0000000000000000e+00 0.0000000000000000e+00  3.3125777709707832e-01 0.0000000000000000e+00 0.0000000000000000e+00  3.3195024223217046e-01 0.0000000000000000e+00 0.0000000000000000e+00  3.3276476636667496e-01 0.0000000000000000e+00 0.0000000000000000e+00  3.3360717415998664e-01 0.0000000000000000e+00 0.0000000000000000e+00  3.3439317362219168e-01 0.0000000000000000e+00 0.0000000000000000e+00  3.3473187584155334e-01 -1.7653198867962968e-03 0.0000000000000000e+00  3.3378496565198890e-01 -3.3845701484344565e-03 0.0000000000000000e+00  3.3226301625548055e-01 -4.8914117484704991e-03 0.0000000000000000e+00  3.3025225025167992e-01 -6.1781301422588744e-03 0.0000000000000000e+00  3.2782143135984038e-01 -7.2287669073343884e-03 0.0000000000000000e+00  3.2503706669446947e-01 -8.0288335315775641e-03 0.0000000000000000e+00  3.2202395121626071e-01 -8.5780894811344922e-03 0.0000000000000000e+00  3.1884181579605814e-01 -8.8861917989893589e-03 0.0000000000000000e+00  3.1552614217337260e-01 -8.9741688743779843e-03 0.0000000000000000e+00  3.1217629142318987e-01 -8.8664142635216069e-03 0.0000000000000000e+00  3.0880621696836863e-01 -8.6078677546430078e-03 0.0000000000000000e+00  3.0545274253375315e-01 -8.2180778191672764e-03 0.0000000000000000e+00  3.0213002216281254e-01 -7.7251690291600724e-03 0.0000000000000000e+00  2.9885125574406884e-01 -7.1603775789154597e-03 0.0000000000000000e+00  2.9561758357166956e-01 -6.5445156570627366e-03 0.0000000000000000e+00  2.9243489427741903e-01 -5.8961474486678824e-03 0.0000000000000000e+00  2.8929836841461615e-01 -5.2344237144566980e-03 0.0000000000000000e+00  2.8619811054296740e-01 -4.5689583037585727e-03 0.0000000000000000e+00  2.8312643149872019e-01 -3.9119998416584740e-03 0.0000000000000000e+00  2.8007246275130676e-01 -3.2651824537887775e-03 0.0000000000000000e+00  2.7702724765725972e-01 -2.6329493470089592e-03 0.0000000000000000e+00  2.7398274294228481e-01 -2.0146557137791479e-03 0.0000000000000000e+00  2.7093405564063161e-01 -1.4080493028462368e-03 0.0000000000000000e+00  2.6787579912060250e-01 -8.0714085170873677e-04 0.0000000000000000e+00  3.0528812157756946e-01 2.3911734239933060e-02 0.0000000000000000e+00  2.5240432955914222e-01 3.1616511294577834e-02 0.0000000000000000e+00  2.9102491055660379e-01 3.6261727423977694e-02 0.0000000000000000e+00  2.9592453617572212e-01 -4.0938352144813273e-03 0.0000000000000000e+00  2.4745625357893153e-01 4.4038107383250320e-02 0.0000000000000000e+00  2.7479002473795988e-01 4.6065340837166506e-02 0.0000000000000000e+00  2.4414925813276803e-01 5.5202260884494952e-02 0.0000000000000000e+00  2.5649077457489755e-01 5.2622597182190672e-02 0.0000000000000000e+00  2.4276927940252133e-01 6.4052726795649370e-02 0.0000000000000000e+00  2.3580917554515018e-01 5.4438708654974903e-02 0.0000000000000000e+00  3.0930775329555132e-01 -6.0916486543250081e-03 0.0000000000000000e+00  2.4367470499894606e-01 6.9486603132439012e-02 0.0000000000000000e+00  2.1229927211346220e-01 4.9361209455356672e-02 0.0000000000000000e+00  3.2007487996163581e-01 1.1870860060376433e-02 0.0000000000000000e+00  2.4862423346943652e-01 6.8301676733176206e-02 0.0000000000000000e+00  1.8509842865073653e-01 3.4571664912155471e-02 0.0000000000000000e+00  2.5831589641422237e-01 1.9044573704720479e-02 0.0000000000000000e+00  3.2266827937332965e-01 -6.0759203672760345e-03 0.0000000000000000e+00  6.7709167625139094e-02 -2.1372579179007267e-01 0.0000000000000000e+00  2.5812529941133444e-01 5.6534384402136269e-02 0.0000000000000000e+00  3.0594369218252337e-01 -1.3033438219270915e-01 0.0000000000000000e+00  1.5038182056811228e-01 7.6633891984033550e-03 0.0000000000000000e+00  2.8317007253934107e-01 -1.2181307815664595e-03 0.0000000000000000e+00  3.1262229848977835e-01 -2.2653825781552434e-01 0.0000000000000000e+00  2.7039036036379765e-01 3.4201306228436409e-02 0.0000000000000000e+00  3.2978516221924231e-01 3.7023125699340231e-04 0.0000000000000000e+00  2.9707660064080210e-01 -5.7585372708947175e-02 0.0000000000000000e+00  2.8447498343435640e-01 -2.1747074213837063e-03 0.0000000000000000e+00  9.7022165719344827e-02 -2.7443547079195285e-01 0.0000000000000000e+00  1.2440060205195597e-01 -3.3818221272837834e-01 0.0000000000000000e+00  3.1150868761914863e-01 -2.9958298128087879e-01 0.0000000000000000e+00  1.5497069665092733e-01 -3.9874905274793693e-01 0.0000000000000000e+00  3.1155800383294280e-01 -3.7235074419627262e-01 0.0000000000000000e+00  1.8456340302252106e-01 -4.7058676165505825e-01 0.0000000000000000e+00  3.1427620023814030e-02 -1.5324227544559224e-01 0.0000000000000000e+00  2.6206728163348647e-01 9.9901612492409378e-03 0.0000000000000000e+00  3.3058229155133373e-01 -4.0283202740471315e-03 0.0000000000000000e+00  3.1278381013434020e-01 -4.9171002676442671e-01 0.0000000000000000e+00  2.2118209796132457e-01 -5.5459404959371061e-01 0.0000000000000000e+00  3.3210474964073422e-01 -2.7865647736923215e-04 0.0000000000000000e+00  2.7420019777125432e-01 3.2575430997178992e-04 0.0000000000000000e+00  3.2895363103969821e-01 9.5487236554768322e-04 0.0000000000000000e+00  3.1626261323210214e-01 -6.3379630847684417e-03 0.0000000000000000e+00  3.1170386931844463e-01 -4.4366475900576569e-01 0.0000000000000000e+00  3.0839741605452764e-01 -1.7591041583971243e-01 0.0000000000000000e+00  2.5309929938693926e-01 6.3845306388085207e-02 0.0000000000000000e+00  2.4569957921035954e-01 6.9951285829583487e-02 0.0000000000000000e+00  3.0249232233665946e-01 -5.2019151300475427e-03 0.0000000000000000e+00  2.4274256932583876e-01 6.7545267885797927e-02 0.0000000000000000e+00  2.4318025328121592e-01 6.0306009746475854e-02 0.0000000000000000e+00  2.4561378813718207e-01 4.9772280609472308e-02 0.0000000000000000e+00  2.4976469907530530e-01 3.8042035220142455e-02 0.0000000000000000e+00  2.5497284038044460e-01 2.5584333043031548e-02 0.0000000000000000e+00  2.8967661732585698e-01 -2.9603417402936576e-03 0.0000000000000000e+00  2.9844498166448508e-01 3.0373265463261648e-02 0.0000000000000000e+00  2.6591654039723539e-01 4.9826644635616486e-02 0.0000000000000000e+00  2.8314851087880211e-01 4.1504879174760249e-02 0.0000000000000000e+00  2.4647122204516314e-01 5.4243194673105927e-02 0.0000000000000000e+00  2.2444354768578093e-01 5.2921505529919061e-02 0.0000000000000000e+00  1.9925568403240942e-01 4.3379490034978894e-02 0.0000000000000000e+00  1.6931076171317172e-01 2.2620158788603816e-02 0.0000000000000000e+00  1.2702835054504988e-01 -6.7880975392311206e-03 0.0000000000000000e+00  1.2801725874150535e-01 -2.7059758384967950e-02 0.0000000000000000e+00  1.4866569577196637e-01 -1.2417998160368798e-02 0.0000000000000000e+00  1.5123391690995891e-01 -3.3778873349163956e-02 0.0000000000000000e+00  1.6792490751738878e-01 -1.8367547115269351e-02 0.0000000000000000e+00  1.7133361618769094e-01 -3.9602254275884208e-02 0.0000000000000000e+00  1.8590502060871947e-01 -2.3982031253326788e-02 0.0000000000000000e+00  1.8240434726206331e-01 -6.0127084685669824e-03 0.0000000000000000e+00  1.8998377495116497e-01 -4.4909388945594403e-02 0.0000000000000000e+00  1.7498102023072074e-01 -6.3076645682465515e-02 0.0000000000000000e+00  1.9428828226842262e-01 -6.7512615893306482e-02 0.0000000000000000e+00  1.7891031475886671e-01 -8.6937392245320919e-02 0.0000000000000000e+00  1.9884265109849264e-01 -9.0745030494758586e-02 0.0000000000000000e+00  1.8324974637775360e-01 -1.1070894752324613e-01 0.0000000000000000e+00  1.9882305733756933e-01 -1.0856839677959737e-02 0.0000000000000000e+00  1.9527701102868125e-01 4.6975753812372083e-03 0.0000000000000000e+00  2.0376127451433335e-01 -1.1416804148970404e-01 0.0000000000000000e+00  1.8807013062553210e-01 -1.3427305209672202e-01 0.0000000000000000e+00  2.0910786231692693e-01 -1.3760681752170037e-01 0.0000000000000000e+00  1.9340005604286589e-01 -1.5760564606701633e-01 0.0000000000000000e+00  2.1048835417698708e-01 5.9368342421591989e-04 0.0000000000000000e+00  2.0688169227463912e-01 1.4237813862334896e-02 0.0000000000000000e+00  1.6620010241542968e-01 -1.3132723282013645e-01 0.0000000000000000e+00  2.1491421737303890e-01 -1.6107546553859289e-01 0.0000000000000000e+00  1.9920249888159491e-01 -1.8077621949290693e-01 0.0000000000000000e+00  2.1294898927354558e-01 -7.2041373678885037e-02 0.0000000000000000e+00  2.2103825710006575e-01 1.0782933992142012e-02 0.0000000000000000e+00  2.1732647003058400e-01 2.2846777187888086e-02 0.0000000000000000e+00  2.0422994777820133e-01 2.5182741876596960e-02 0.0000000000000000e+00  2.1471021605499699e-01 3.2654990832165130e-02 0.0000000000000000e+00  2.0334447636985728e-01 3.3889506844479965e-02 0.0000000000000000e+00  2.1333751121070890e-01 4.0496656818545758e-02 0.0000000000000000e+00  2.0401338743511377e-01 4.0881671027317074e-02 0.0000000000000000e+00  2.1309405178210877e-01 4.6742056254619815e-02 0.0000000000000000e+00  2.0540399676274007e-01 4.6472347760175198e-02 0.0000000000000000e+00  2.1366904614496096e-01 5.1704494053688439e-02 0.0000000000000000e+00  2.0748820313470379e-01 5.0994265742925267e-02 0.0000000000000000e+00  2.1491870636166430e-01 5.5630602134232571e-02 0.0000000000000000e+00  2.0994730895804295e-01 5.4610474164670318e-02 0.0000000000000000e+00  2.1665478036512750e-01 5.8676251651302580e-02 0.0000000000000000e+00  2.215339