<?xml version="1.0"?>
<VTKFile type="UnstructuredGrid"  version="0.1"  >
<UnstructuredGrid>
<Piece  NumberOfPoints="1425" NumberOfCells="2674">
<Points>
<DataArray  type="Float64"  NumberOfComponents="3"  format="ascii">50 0 0  20 0 0  20 5.818771069798093 0  25.43283734208473 5.818771069798093 0  25.64792492572087 3.326860649668426 0  34.97954487243545 8.661932917415525 0  34.97954487243545 12.5 0  50 12.5 0  49.5 0 0  49 0 0  48.5 0 0  48 0 0  47.5 0 0  47 0 0  46.5 0 0  46 0 0  45.5 0 0  45 0 0  44.5 0 0  44 0 0  43.5 0 0  43 0 0  42.5 0 0  42 0 0  41.5 0 0  41 0 0  40.5 0 0  40 0 0  39.5 0 0  39 0 0  38.5 0 0  38 0 0  37.5 0 0  37 0 0  36.5 0 0  36 0 0  35.5 0 0  35 0 0  34.5 0 0  34 0 0  33.5 0 0  33 0 0  32.5 0 0  32 0 0  31.5 0 0  31 0 0  30.5 0 0  30 0 0  29.5 0 0  29 0 0  28.5 0 0  28 0 0  27.5 0 0  27 0 0  26.5 0 0  26 0 0  25.5 0 0  25 0 0  24.5 0 0  24 0 0  23.5 0 0  23 0 0  22.5 0 0  22 0 0  21.5 0 0  21 0 0  20.5 0 0  20 0.484897589149841 0  20 0.9697951782996821 0  20 1.454692767449523 0  20 1.939590356599364 0  20 2.424487945749205 0  20 2.909385534899046 0  20 3.394283124048887 0  20 3.879180713198728 0  20 4.364078302348569 0  20 4.84897589149841 0  20 5.333873480648252 0  20.49389430382589 5.818771069798093 0  20.98778860765177 5.818771069798093 0  21.48168291147766 5.818771069798093 0  21.97557721530354 5.818771069798093 0  22.46947151912942 5.818771069798093 0  22.96336582295531 5.818771069798093 0  23.45726012678119 5.818771069798093 0  23.95115443060708 5.818771069798093 0  24.44504873443296 5.818771069798093 0  24.93894303825885 5.818771069798093 0  25.47585485881196 5.320388985772159 0  25.51887237553919 4.822006901746226 0  25.56188989226641 4.323624817720292 0  25.60490740899364 3.825242733694359 0  26.07208946875335 3.569363934566021 0  26.49625401178583 3.811867219463617 0  26.92041855481831 4.054370504361212 0  27.34458309785079 4.296873789258807 0  27.76874764088327 4.539377074156403 0  28.19291218391575 4.781880359053998 0  28.61707672694823 5.024383643951594 0  29.04124126998071 5.266886928849189 0  29.4654058130132 5.509390213746785 0  29.88957035604567 5.75189349864438 0  30.31373489907816 5.994396783541975 0  30.73789944211064 6.236900068439571 0  31.16206398514312 6.479403353337166 0  31.5862285281756 6.721906638234762 0  32.01039307120808 6.964409923132357 0  32.43455761424056 7.206913208029953 0  32.85872215727304 7.449416492927548 0  33.28288670030553 7.691919777825143 0  33.70705124333801 7.934423062722739 0  34.13121578637049 8.176926347620334 0  34.55538032940296 8.419429632517929 0  34.97954487243545 9.141691302738584 0  34.97954487243545 9.621449688061643 0  34.97954487243545 10.1012080733847 0  34.97954487243545 10.58096645870776 0  34.97954487243545 11.06072484403082 0  34.97954487243545 11.54048322935388 0  34.97954487243545 12.02024161467694 0  35.46407568300204 12.5 0  35.94860649356865 12.5 0  36.43313730413524 12.5 0  36.91766811470184 12.5 0  37.40219892526844 12.5 0  37.88672973583504 12.5 0  38.37126054640164 12.5 0  38.85579135696823 12.5 0  39.34032216753484 12.5 0  39.82485297810143 12.5 0  40.30938378866803 12.5 0  40.79391459923463 12.5 0  41.27844540980123 12.5 0  41.76297622036783 12.5 0  42.24750703093442 12.5 0  42.73203784150103 12.5 0  43.21656865206762 12.5 0  43.70109946263422 12.5 0  44.18563027320081 12.5 0  44.67016108376742 12.5 0  45.15469189433401 12.5 0  45.63922270490061 12.5 0  46.12375351546721 12.5 0  46.60828432603381 12.5 0  47.09281513660041 12.5 0  47.577345947167 12.5 0  48.06187675773361 12.5 0  48.5464075683002 12.5 0  49.03093837886681 12.5 0  49.5154691894334 12.5 0  50 12 0  50 11.5 0  50 11 0  50 10.5 0  50 10 0  50 9.5 0  50 9 0  50 8.5 0  50 8 0  50 7.5 0  50 7 0  50 6.5 0  50 6 0  50 5.5 0  50 5 0  50 4.5 0  50 4 0  50 3.5 0  50 3 0  50 2.5 0  50 2 0  50 1.5 0  50 1 0  50 0.5 0  43.47566339753959 12.06711180730275 0  40.98494071309204 12.07022437785603 0  42.20928987326127 0.4806797917174732 0  49.51328080460276 6.234498181716132 0  39.75997123433748 0.4452721683321519 0  44.75270445327372 0.4525662316478103 0  37.75035884447087 0.4328213086901505 0  45.39849545694693 12.08601671640816 0  34.97557783502096 8.176665161914297 0  35.39511585228777 8.417008955281847 0  35.39291072352287 7.932513941987059 0  35.81742459735532 8.179743955219273 0  35.81189525353269 7.689178477052716 0  36.23726336310757 7.937028742035416 0  36.23118906275858 7.444778147839671 0  36.65184683359615 7.684247263258912 0  49.55506088238987 4.244803492354377 0  49.56698729810778 8.25 0  36.64986307142392 7.19810238146705 0  37.07530127727385 7.446030963583961 0  32.85524429952751 6.963315558970645 0  37.07090267397682 6.953479374062175 0  37.49797610990129 7.203722837557013 0  36.64718659334365 6.71077019127245 0  34.7354369583946 0.4017114541129443 0  37.492373457957 6.708200898286918 0  37.91878039782591 6.951986539605188 0  37.91398371622596 6.461022675968615 0  38.34694440469239 6.711793771833142 0  32.75340198718377 0.4761432100621263 0  38.33722406105642 6.21523709266415 0  38.766977059316 6.46382586525197 0  31.13912759638405 5.98302260097081 0  38.75977902203354 5.968148699920611 0  39.18511653311032 6.211332005234343 0  39.19394978511455 6.709077951582985 0  39.61103004712805 6.455126545225746 0  39.60748171085928 5.962866997995484 0  40.03299795711239 6.208139500918735 0  40.04050254939691 6.703158912376461 0  40.46041372268695 6.451837531768021 0  40.45246274088508 5.960766327211205 0  40.88293254099835 6.205208297474543 0  40.89025014938726 6.700117868399341 0  41.31144146018795 6.449332382071635 0  41.30448107727351 5.957487392344921 0  41.73506745363614 6.202518608593577 0  41.74441282792682 6.699671962919191 0  42.16747686371673 6.451003420812953 0  42.15843183614376 5.955308344627375 0  42.58926839911932 6.20010753962148 0  42.59476148566172 6.695745583878931 0  43.01910781159771 6.4465854448183 0  43.01265972765943 5.952452701783087 0  43.44311170677135 6.198671256030078 0  43.44719781648824 6.692314723153943 0  38.33345060412514 5.724165177204409 0  43.8713178246557 6.443701094034391 0  43.86622950785625 5.949086010680696 0  46.73653528498573 0.4443752337378166 0  43.8727773451136 6.937193793276478 0  39.09805676225153 12.08038400913306 0  29.4281709399491 5.026316346910781 0  44.29882786232102 6.690098061168214 0  44.29972334043924 7.183072267405469 0  22.81070155115938 0.4271961272756899 0  43.87498549386935 7.431686855262865 0  49.52924009433227 9.71305764427477 0  31.22204063865355 0.4162168965011999 0  36.22110299824255 0.4789854245339109 0  46.86084111611002 12.06999617293776 0  37.94004119312482 7.45977837085399 0  20.39186475885517 3.158360263289464 0  44.72636794873691 6.936201767301389 0  44.72698885744109 7.429047948518871 0  36.66212278008543 8.175410418477094 0  28.14544241749635 4.307253607814329 0  45.15407734003171 7.181941617852678 0  45.15136008730305 6.687346310024103 0  45.15461811763375 7.675070810819322 0  25.19982702239461 3.539230934540913 0  49.53230124447669 2.743975575398512 0  29.76678385220445 0.4230815655509312 0  22.71252665427376 5.437406172774458 0  37.6117779548428 12.08324111222328 0  45.58162781769884 7.427970120864612 0  45.58216120426826 7.921083882732686 0  45.15554870673026 8.167924733925283 0  45.58239544753351 8.413729852993244 0  45.15662586563166 8.660401927733158 0  28.24918474451088 0.4330036269369151 0  46.00923503615497 7.67400754105382 0  35.39006169979506 7.447662187813048 0  45.58261490102724 8.905601838310478 0  35.43031250005156 10.35364355474457 0  26.86637656403698 3.581342024358935 0  45.15757993940889 9.151574185916392 0  24.28416239218924 0.4222368667973857 0  26.78909215970348 0.4113576031235269 0  45.58316434562165 9.396740915218899 0  46.00800858182502 9.151050857822426 0  48.3300259808685 12.1234582779564 0  20.36506360358306 1.70466081109459 0  48.23015511504317 0.4999894258720552 0  45.15855951545355 9.642362370668675 0  44.73349870007723 9.397689715991053 0  25.23142955873784 3.065300494309021 0  24.79657452951963 3.260834379965874 0  25.5953814245043 2.849495427998237 0  46.0085414201799 9.642000983411133 0  46.4335358890109 9.396187254595189 0  44.73454964280016 9.887594751791962 0  44.31018805414763 9.643570629099191 0  24.80761189173874 2.723645504564172 0  24.37590768344322 2.991268396080751 0  24.35107678374584 3.468069072159712 0  23.94852793171918 3.187728135985345 0  23.9941436978205 2.696844253144635 0  23.5543212985939 2.897984176953723 0  46.43352128612014 9.887242529628711 0  46.85914839570877 9.641522753336503 0  46.85913445081186 9.14951011495746 0  47.2863282311665 9.395745863280816 0  47.28565712225043 8.902260682348942 0  47.28755018752767 9.890656657460127 0  23.50825455069875 3.391839627989186 0  23.10610899891511 3.111388129142632 0  23.15332555801707 2.61544341466803 0  22.70402237689265 2.830846748609882 0  22.66101513710859 3.320621976201863 0  21.67840846997906 0.4742242298350003 0  49.45439071346377 10.73184764147646 0  25.24382191541738 0.4156025694248129 0  21.75230510294445 5.393551036297044 0  38.74940496692781 0.4329318569339415 0  40.75 0.4330127018922196 0  49.51937216648666 7.232776742769083 0  49.55450348738101 5.244291762735771 0  33.75517451502503 0.3915267108616005 0  43.25 0.4330127018922196 0  45.68581195958218 0.4725230940393752 0  49.54592142534221 1.745255390109981 0  44.31127540781244 10.1337815119728 0  43.88694569198006 9.889026359575173 0  43.88601890143779 9.399789620861394 0  43.46274155988643 9.645183808878102 0  43.46178170753353 9.156020558792328 0  43.03858932814039 9.401641778474595 0  43.03966975802405 9.890569549286509 0  42.61587610804826 9.647150964763437 0  42.61445213855348 9.158238652621097 0  42.1917417932434 9.403780930361346 0  42.61716399001565 10.13575943617555 0  42.19027161230387 8.914906003279874 0  41.76740145108825 9.160456859513051 0  41.7660594047881 8.671564857037639 0  41.34333833690444 8.917347039349243 0  41.34475738467805 9.405953554801357 0  40.92110167510337 9.162997794246209 0  40.9225
[...]
<PointData  Vectors="u"> 
<DataArray  type="Float64"  Name="u"  NumberOfComponents="3" format="ascii">1.1902988843976745e-01 4.6979940929624984e-03 0.0000000000000000e+00  1.5315487412564036e-01 -2.6257094420281685e-01 0.0000000000000000e+00  -5.5027076050520971e-02 -2.6394477541979516e-01 0.0000000000000000e+00  -6.1111213719249803e-02 -6.8146860160479591e-02 0.0000000000000000e+00  4.9344619193140989e-02 -6.1301035518443070e-02 0.0000000000000000e+00  1.0425128004407730e-01 -3.2417492053479936e-05 0.0000000000000000e+00  1.0973727458916194e-01 0.0000000000000000e+00 0.0000000000000000e+00  1.1948655309447491e-01 0.0000000000000000e+00 0.0000000000000000e+00  1.1852988701200080e-01 4.7110445984663487e-03 0.0000000000000000e+00  1.1803003195800310e-01 4.7242556186953312e-03 0.0000000000000000e+00  1.1753042743271647e-01 4.7375109689231868e-03 0.0000000000000000e+00  1.1703113368756941e-01 4.7506767099990974e-03 0.0000000000000000e+00  1.1653217869234138e-01 4.7636315505747741e-03 0.0000000000000000e+00  1.1603355932793422e-01 4.7762704617155607e-03 0.0000000000000000e+00  1.1553534997966870e-01 4.7886175489209107e-03 0.0000000000000000e+00  1.1503765047048962e-01 4.8006395103586926e-03 0.0000000000000000e+00  1.1454065315302275e-01 4.8122792383205361e-03 0.0000000000000000e+00  1.1404473539723083e-01 4.8241164608391071e-03 0.0000000000000000e+00  1.1355015523048645e-01 4.8352718028022755e-03 0.0000000000000000e+00  1.1305769434027625e-01 4.8469006644211114e-03 0.0000000000000000e+00  1.1256763118637718e-01 4.8582339439586387e-03 0.0000000000000000e+00  1.1208151932112992e-01 4.8692676929255200e-03 0.0000000000000000e+00  1.1160014628895748e-01 4.8795083513471366e-03 0.0000000000000000e+00  1.1112522179497829e-01 4.8878058311392462e-03 0.0000000000000000e+00  1.1065881664372054e-01 4.8968507188850924e-03 0.0000000000000000e+00  1.1020109625008848e-01 4.9011798182418964e-03 0.0000000000000000e+00  1.0975643843631160e-01 4.9016706527152685e-03 0.0000000000000000e+00  1.0932584143106175e-01 4.8954400269555828e-03 0.0000000000000000e+00  1.0891349807251799e-01 4.8820936660804864e-03 0.0000000000000000e+00  1.0852175695857466e-01 4.8551481528450570e-03 0.0000000000000000e+00  1.0815557911877526e-01 4.8140073151016526e-03 0.0000000000000000e+00  1.0781886611575382e-01 4.7520515704088991e-03 0.0000000000000000e+00  1.0751507229498682e-01 4.6613076613047531e-03 0.0000000000000000e+00  1.0725091379562313e-01 4.5387980853543747e-03 0.0000000000000000e+00  1.0703322840042645e-01 4.3816829254620469e-03 0.0000000000000000e+00  1.0685721880211013e-01 4.1608632680058865e-03 0.0000000000000000e+00  1.0674594150617314e-01 3.8957870185017981e-03 0.0000000000000000e+00  1.0668008373777013e-01 3.5453993217101276e-03 0.0000000000000000e+00  1.0669278116703992e-01 3.1170372719761677e-03 0.0000000000000000e+00  1.0678776253976884e-01 2.5916579368811424e-03 0.0000000000000000e+00  1.0696918239955945e-01 1.9350926265360648e-03 0.0000000000000000e+00  1.0725670407897639e-01 1.1631708474211071e-03 0.0000000000000000e+00  1.0764274248299575e-01 2.0373473231064391e-04 0.0000000000000000e+00  1.0820399766765909e-01 -9.2508610652999087e-04 0.0000000000000000e+00  1.0887940821988920e-01 -2.2804084070155418e-03 0.0000000000000000e+00  1.0974135642826886e-01 -3.9111592150877054e-03 0.0000000000000000e+00  1.1082612752555181e-01 -5.8613108167707784e-03 0.0000000000000000e+00  1.1217518169381660e-01 -8.2046806198086773e-03 0.0000000000000000e+00  1.1385477174770063e-01 -1.1019160842541148e-02 0.0000000000000000e+00  1.1579831888317879e-01 -1.4437677293982685e-02 0.0000000000000000e+00  1.1822573405330167e-01 -1.8550253548952320e-02 0.0000000000000000e+00  1.2107862202726299e-01 -2.3623358243524815e-02 0.0000000000000000e+00  1.2438358561792687e-01 -2.9881495445933316e-02 0.0000000000000000e+00  1.2812686258260164e-01 -3.7549978160397207e-02 0.0000000000000000e+00  1.3221315256406249e-01 -4.6890933734490936e-02 0.0000000000000000e+00  1.3631343746858324e-01 -5.8071193898691822e-02 0.0000000000000000e+00  1.4032036367187781e-01 -7.1079139484080456e-02 0.0000000000000000e+00  1.4386632381707234e-01 -8.5842748521794410e-02 0.0000000000000000e+00  1.4673580812363465e-01 -1.0187426220234144e-01 0.0000000000000000e+00  1.4896680058371642e-01 -1.1886921015323927e-01 0.0000000000000000e+00  1.5056807878050221e-01 -1.3645542314939990e-01 0.0000000000000000e+00  1.5171942555126708e-01 -1.5444938213602552e-01 0.0000000000000000e+00  1.5242796597604150e-01 -1.7249356292362134e-01 0.0000000000000000e+00  1.5284403862671544e-01 -1.9061608570737729e-01 0.0000000000000000e+00  1.5305624530944650e-01 -2.0870541024352102e-01 0.0000000000000000e+00  1.5314496911227343e-01 -2.2674142541601175e-01 0.0000000000000000e+00  1.5316165076159272e-01 -2.4468424773631831e-01 0.0000000000000000e+00  1.3582735722826331e-01 -2.6256419663913944e-01 0.0000000000000000e+00  1.1854669121148591e-01 -2.6257744602128974e-01 0.0000000000000000e+00  1.0131253198956104e-01 -2.6264380326718856e-01 0.0000000000000000e+00  8.4100048915844924e-02 -2.6278595319045001e-01 0.0000000000000000e+00  6.6863021467433364e-02 -2.6299731566124301e-01 0.0000000000000000e+00  4.9563375785014248e-02 -2.6324981104545103e-01 0.0000000000000000e+00  3.2192925287586244e-02 -2.6349929121822024e-01 0.0000000000000000e+00  1.4748952914754133e-02 -2.6371453670068029e-01 0.0000000000000000e+00  -2.7256634148632064e-03 -2.6386042339395671e-01 0.0000000000000000e+00  -2.0215393468774805e-02 -2.6393458794817681e-01 0.0000000000000000e+00  -3.7646550454255107e-02 -2.6395200341702812e-01 0.0000000000000000e+00  -5.5020080127453082e-02 -2.4626112657206670e-01 0.0000000000000000e+00  -5.5035926409106393e-02 -2.2863362590692593e-01 0.0000000000000000e+00  -5.5114678385178424e-02 -2.1106333245756922e-01 0.0000000000000000e+00  -5.5305386459979747e-02 -1.9353218389833027e-01 0.0000000000000000e+00  -5.5649666628137681e-02 -1.7602006989190455e-01 0.0000000000000000e+00  -5.6201747235495238e-02 -1.5847620673153243e-01 0.0000000000000000e+00  -5.6973505216954740e-02 -1.4076375508084016e-01 0.0000000000000000e+00  -5.7936629856643454e-02 -1.2282951112826429e-01 0.0000000000000000e+00  -5.9042031279459707e-02 -1.0463506278411594e-01 0.0000000000000000e+00  -6.0121523382675686e-02 -8.6309724119051232e-02 0.0000000000000000e+00  -4.2930820806025706e-02 -6.6847710671130031e-02 0.0000000000000000e+00  -2.4556710487379761e-02 -6.5339332935604025e-02 0.0000000000000000e+00  -5.4126301823904611e-03 -6.3586016246007751e-02 0.0000000000000000e+00  1.5724384624628877e-02 -6.1861881636261044e-02 0.0000000000000000e+00  5.9655100190973323e-02 -5.3737887411534818e-02 0.0000000000000000e+00  6.5331995687998759e-02 -4.6293661491464341e-02 0.0000000000000000e+00  6.9252535862303885e-02 -3.9902998304468494e-02 0.0000000000000000e+00  7.2414155078081147e-02 -3.4362780581616237e-02 0.0000000000000000e+00  7.5212202656142896e-02 -2.9556663840120682e-02 0.0000000000000000e+00  7.7752037113565084e-02 -2.5380407852216423e-02 0.0000000000000000e+00  8.0100705102653103e-02 -2.1755644871328000e-02 0.0000000000000000e+00  8.2317084462729215e-02 -1.8620178045815089e-02 0.0000000000000000e+00  8.4394577953088634e-02 -1.5898045524729894e-02 0.0000000000000000e+00  8.6354421262382283e-02 -1.3536877685140010e-02 0.0000000000000000e+00  8.8209685393362450e-02 -1.1487186139256370e-02 0.0000000000000000e+00  8.9971184067150045e-02 -9.7068899443423888e-03 0.0000000000000000e+00  9.1642870101700691e-02 -8.1583186135103982e-03 0.0000000000000000e+00  9.3233090158331908e-02 -6.8097436703986906e-03 0.0000000000000000e+00  9.4748895844420838e-02 -5.6339020661013645e-03 0.0000000000000000e+00  9.6197263110021441e-02 -4.6067806916122375e-03 0.0000000000000000e+00  9.7582487737959633e-02 -3.7038324922718936e-03 0.0000000000000000e+00  9.8915467187283543e-02 -2.9037911177976893e-03 0.0000000000000000e+00  1.0020840690442948e-01 -2.1817417347955305e-03 0.0000000000000000e+00  1.0149023025025439e-01 -1.5106233619583982e-03 0.0000000000000000e+00  1.0280653708460649e-01 -8.4233803551104092e-04 0.0000000000000000e+00  1.0611828800137003e-01 6.1836535112021012e-04 0.0000000000000000e+00  1.0726931922401746e-01 8.1050910519087907e-04 0.0000000000000000e+00  1.0810564358988690e-01 8.1099658113561123e-04 0.0000000000000000e+00  1.0872672770616079e-01 7.1712660120647480e-04 0.0000000000000000e+00  1.0917698528495318e-01 5.7651550886883150e-04 0.0000000000000000e+00  1.0948758850663631e-01 4.0400857756188669e-04 0.0000000000000000e+00  1.0966830597639715e-01 2.1046240504105180e-04 0.0000000000000000e+00  1.0979066962024157e-01 0.0000000000000000e+00 0.0000000000000000e+00  1.0982101866098336e-01 0.0000000000000000e+00 0.0000000000000000e+00  1.0984002919816394e-01 0.0000000000000000e+00 0.0000000000000000e+00  1.0986734514969464e-01 0.0000000000000000e+00 0.0000000000000000e+00  1.0991847873328121e-01 0.0000000000000000e+00 0.0000000000000000e+00  1.1000268516627902e-01 0.0000000000000000e+00 0.0000000000000000e+00  1.1012575614609589e-01 0.0000000000000000e+00 0.0000000000000000e+00  1.1028633319919356e-01 0.0000000000000000e+00 0.0000000000000000e+00  1.1048901465318832e-01 0.0000000000000000e+00 0.0000000000000000e+00  1.1072623929771001e-01 0.0000000000000000e+00 0.0000000000000000e+00  1.1099858847977592e-01 0.0000000000000000e+00 0.0000000000000000e+00  1.1129847911356702e-01 0.0000000000000000e+00 0.0000000000000000e+00  1.1162370432309594e-01 0.0000000000000000e+00 0.0000000000000000e+00  1.1197344400924238e-01 0.0000000000000000e+00 0.0000000000000000e+00  1.1234241294452171e-01 0.0000000000000000e+00 0.0000000000000000e+00  1.1272960395601204e-01 0.0000000000000000e+00 0.0000000000000000e+00  1.1313074838940031e-01 0.0000000000000000e+00 0.0000000000000000e+00  1.1354531364591135e-01 0.0000000000000000e+00 0.0000000000000000e+00  1.1396990532994641e-01 0.0000000000000000e+00 0.0000000000000000e+00  1.1440338836045987e-01 0.0000000000000000e+00 0.0000000000000000e+00  1.1484528159565854e-01 0.0000000000000000e+00 0.0000000000000000e+00  1.1529364799089775e-01 0.0000000000000000e+00 0.0000000000000000e+00  1.1574795212531894e-01 0.0000000000000000e+00 0.0000000000000000e+00  1.1620668353334695e-01 0.0000000000000000e+00 0.0000000000000000e+00  1.1666950431760016e-01 0.0000000000000000e+00 0.0000000000000000e+00  1.1713526277298326e-01 0.0000000000000000e+00 0.0000000000000000e+00  1.1760347869226573e-01 0.0000000000000000e+00 0.0000000000000000e+00  1.1807343837247873e-01 0.0000000000000000e+00 0.0000000000000000e+00  1.1854435723648687e-01 0.0000000000000000e+00 0.0000000000000000e+00  1.1901566917406121e-01 0.0000000000000000e+00 0.0000000000000000e+00  1.1948352648599804e-01 1.6202221873853429e-04 0.0000000000000000e+00  1.1947650463942536e-01 3.2493338789392901e-04 0.0000000000000000e+00  1.1946472526905449e-01 4.8922904578395333e-04 0.0000000000000000e+00  1.1944925859083480e-01 6.5598613254277906e-04 0.0000000000000000e+00  1.1942999959202176e-01 8.2497668075899643e-04 0.0000000000000000e+00  1.1940789928971383e-01 9.9698153846058675e-04 0.0000000000000000e+00  1.1938357209938207e-01 1.1723121500212430e-03 0.0000000000000000e+00  1.1935748492644331e-01 1.3510656242182310e-03 0.0000000000000000e+00  1.1933032787883335e-01 1.5333745883367223e-03 0.0000000000000000e+00  1.1930296304811532e-01 1.7191593890504772e-03 0.0000000000000000e+00  1.1927591064567804e-01 1.9081992293783674e-03 0.0000000000000000e+00  1.1924974356450825e-01 2.1002313251447819e-03 0.0000000000000000e+00  1.1922466868024427e-01 2.2948984158169725e-03 0.0000000000000000e+00  1.1920110655073669e-01 2.4917888485030430e-03 0.0000000000000000e+00  1.1917924381236854e-01 2.6904702750384733e-03 0.0000000000000000e+00  1.1915926381933732e-01 2.8903860102589443e-03 0.0000000000000000e+00  1.1914092798454720e-01 3.0912443019716304e-03 0.0000000000000000e+00  1.1912422593671043e-01 3.2925998731112927e-03 0.0000000000000000e+00  1.1910891977286832e-01 3.4940890447421437e-03 0.0000000000000000e+00  1.1909470326265433e-01 3.6954833172153818e-03 0.0000000000000000e+00  1.1908127990714493e-01 3.8966301164125301e-03 0.0000000000000000e+00  1.1906834813717417e-01 4.0974266182235578e-03 0.0000000000000000e+00  1.1905559143512029e-01 4.2978451701755800e-03 0.0000000000000000e+00  1.1904283501974521e-01 4.4979960579047285e-03 0.0000000000000000e+00  1.1334391299958108e-01 1.1208701756261556e-04 0.0000000000000000e+00  1.1140715624012941e-01 4.9046975178215439e-05 0.0000000000000000e+00  1.1132379936260761e-01 4.7016114450322086e-03 0.0000000000000000e+00  1.1875161719365730e-01 2.2249180359220780e-03 0.0000000000000000e+00  1.0909497289943614e-01 4.7408433736248956e-03 0.0000000000000000e+00  1.1380850248412007e-01 4.6504641039263155e-03 0.0000000000000000e+00  1.0755400754209501e-01 4.6002313392830970e-03 0.0000000000000000e+00  1.1506667495413499e-01 1.2988504236357551e-04 0.0000000000000000e+00  1.0289266381912403e-01 -3.3770605749062804e-04 0.0000000000000000e+00  1.0400185678993644e-01 -2.8167918480860306e-04 0.0000000000000000e+00  1.0304104623105956e-01 -2.4318145298288365e-04 0.0000000000000000e+00  1.0409643176496368e-01 -2.3982389337570855e-04 0.0000000000000000e+00  1.0333726293912328e-01 -6.7300993873772069e-05 0.0000000000000000e+00  1.0432742628315510e-01 -7.7220598197682926e-05 0.0000000000000000e+00  1.0372619047935669e-01 1.6830936528185585e-04 0.0000000000000000e+00  1.0463796987473770e-01 1.5054104540356927e-04 0.0000000000000000e+00  1.1870457165880346e-01 3.0084598188850689e-03 0.0000000000000000e+00  1.1891692344550760e-01 1.4619764303285376e-03 0.0000000000000000e+00  1.0417714250896991e-01 4.3713461158683656e-04 0.0000000000000000e+00  1.0504654451833348e-01 4.0486565790658833e-04 0.0000000000000000e+00  9.6772920598718337e-02 -3.5701975244347072e-03 0.0000000000000000e+00  1.0467732416784858e-01 7.1953370368318687e-04 0.0000000000000000e+00  1.0549455634511631e-01 6.7595593660816516e-04 0.0000000000000000e+00  1.0385191507220316e-01 7.5227199847961636e-04 0.0000000000000000e+00  1.0627351978343860e-01 3.3213643028439763e-03 0.0000000000000000e+00  1.0520704207928223e-01 1.0043082635092175e-03 0.0000000000000000e+00  1.0596829943404067e-01 9.5191022024486243e-04 0.0000000000000000e+00  1.0575446106825369e-01 1.2821252357156920e-03 0.0000000000000000e+00  1.0648093399452788e-01 1.2147167140775549e-03 0.0000000000000000e+00  1.0639257177522751e-01 8.2982897503865367e-04 0.0000000000000000e+00  1.0631341238932367e-01 1.5461373420787917e-03 0.0000000000000000e+00  1.0699133116873587e-01 1.4685947035948071e-03 0.0000000000000000e+00  9.0900096958049070e-02 -8.0262640285777426e-03 0.0000000000000000e+00  1.0687339880741989e-01 1.7946061281184950e-03 0.0000000000000000e+00  1.0750559319745813e-01 1.7097019177303664e-03 0.0000000000000000e+00  1.0764861434702218e-01 1.3989734725055910e-03 0.0000000000000000e+00  1.0812637219857441e-01 1.6314946357992132e-03 0.0000000000000000e+00  1.0802828859476374e-01 1.9328467525080233e-03 0.0000000000000000e+00  1.0861808325378688e-01 1.8454880609982684e-03 0.0000000000000000e+00  1.0873629684105264e-01 1.5593089069669006e-03 0.0000000000000000e+00  1.0919750528764270e-01 1.7668349341952063e-03 0.0000000000000000e+00  1.0910748965878603e-01 2.0442311266825296e-03 0.0000000000000000e+00  1.0966708560587994e-01 1.9579974404885492e-03 0.0000000000000000e+00  1.0976602459458873e-01 1.6928911019824019e-03 0.0000000000000000e+00  1.1021294569198423e-01 1.8781550724385537e-03 0.0000000000000000e+00  1.1013634197016636e-01 2.1362694954435942e-03 0.0000000000000000e+00  1.1066648855965890e-01 2.0498624585921473e-03 0.0000000000000000e+00  1.1075213185918310e-01 1.8017510209486789e-03 0.0000000000000000e+00  1.1118940414126709e-01 1.9671648583553152e-03 0.0000000000000000e+00  1.1112031457122343e-01 2.2101924326102850e-03 0.0000000000000000e+00  1.1162739547898265e-01 2.1234304165179598e-03 0.0000000000000000e+00  1.1169582666677495e-01 1.8901681010083261e-03 0.0000000000000000e+00  1.1212558356052860e-01 2.0398866746343062e-03 0.0000000000000000e+00  1.1206812213158250e-01 2.2688454797391597e-03 0.0000000000000000e+00  1.1255687872425447e-01 2.1805435721302044e-03 0.0000000000000000e+00  1.1261368076370858e-01 1.9596454092473833e-03 0.0000000000000000e+00  1.0623292683124862e-01 1.8837082352727626e-03 0.0000000000000000e+00  1.1303676511866416e-01 2.0956010231763023e-03 0.0000000000000000e+00  1.1298747577773376e-01 2.3141783406919526e-03 0.0000000000000000e+00  1.1578151114415892e-01 4.6056271794878735e-03 0.0000000000000000e+00  1.1309113360794101e-01 1.8818203097555578e-03 0.0000000000000000e+00  1.1035495641554297e-01 -2.1976508155436079e-05 0.0000000000000000e+00  8.3919148425310397e-02 -1.5825248567126506e-02 0.0000000000000000e+00  1.1350978808893428e-01 2.0121111741432315e-03 0.0000000000000000e+00  1.1356270696620958e-01 1.8049617296229013e-03 0.0000000000000000e+00  1.3689021801904339e-01 -1.6103895420039305e-01 0.0000000000000000e+00  1.1315423779901246e-01 1.6736131864554984e-03 0.0000000000000000e+00  1.1895694479971743e-01 9.4079929583496457e-04 0.0000000000000000e+00  1.0777625142480234e-01 -2.9102259242502820e-03 0.0000000000000000e+00  1.0666459021610482e-01 4.1910292569766515e-03 0.0000000000000000e+00  1.1644482730898699e-01 1.4406198273596911e-04 0.0000000000000000e+00  1.0630613164410849e-01 6.3757313702578037e-04 0.0000000000000000e+00  4.0733020157001587e-02 -2.4935567271522141e-01 0.0000000000000000e+00  1.1397679040678900e-01 1.9301020175229071e-03 0.0000000000000000e+00  1.1402775448686041e-01 1.7286117398137594e-03 0.0000000000000000e+00  1.0526055393682190e-01 -9.5387241962693710e-05 0.0000000000000000e+00  7.7661137212774234e-02 -2.5411469015089113e-02 0.0000000000000000e+00  1.1443832484717727e-01 1.8488523819083875e-03 0.0000000000000000e+00  1.1439121211949864e-01 2.0505735801913498e-03 0.0000000000000000e+00  1.1448697898282133e-01 1.6520912616330642e-03 0.0000000000000000e+00  3.3597891649726409e-02 -8.0043595470524115e-02 0.0000000000000000e+00  1.1863339753379605e-01 3.6107028645043348e-03 0.0000000000000000e+00  1.1022294513826658e-01 -8.9885190374656386e-03 0.0000000000000000e+00  -4.2184085419746310e-02 -1.6754798559342607e-01 0.0000000000000000e+00  1.0991095207111616e-01 -6.8027311010562930e-05 0.0000000000000000e+00  1.1489461393490934e-01 1.7674534945498841e-03 0.0000000000000000e+00  1.1494065179296477e-01 1.5748270386207106e-03 0.0000000000000000e+00  1.1453861954918891e-01 1.4605788991095524e-03 0.0000000000000000e+00  1.1498775731457836e-01 1.3870507564334657e-03 0.0000000000000000e+00  1.1459145676335551e-01 1.2748189314138907e-03 0.0000000000000000e+00  1.1481192655448862e-01 -2.0140013997109563e-02 0.0000000000000000e+00  1.1534641338540812e-01 1.6854979703649800e-03 0.0000000000000000e+00  1.0235829198106926e-01 -1.3329044577122234e-04 0.0000000000000000e+00  1.1503477329008388e-01 1.2045411495650369e-03 0.0000000000000000e+00  1.0847539820037565e-01 2.7168428174117380e-04 0.0000000000000000e+00  6.9738284794951533e-02 -3.9868941911887876e-02 0.0000000000000000e+00  1.1464343460774525e-01 1.0953781390896841e-03 0.0000000000000000e+00  1.3403288078944195e-01 -1.0847399236372771e-01 0.0000000000000000e+00  1.2204205309833414e-01 -4.0138588456234525e-02 0.0000000000000000e+00  1.1508052036084074e-01 1.0273743420575654e-03 0.0000000000000000e+00  1.1547313047711866e-01 1.1316234613018591e-03 0.0000000000000000e+00  1.1786169570270223e-01 1.2819021371457295e-04 0.0000000000000000e+00  9.2484411746380710e-02 -2.4969993287852457e-01 0.0000000000000000e+00  1.1727371238287741e-01 4.5448923075374712e-03 0.0000000000000000e+00  1.1469302533180134e-01 9.2190349768276995e-04 0.0000000000000000e+00  1.1425875816542867e-01 9.8462661212756104e-04 0.0000000000000000e+00  5.5579984213528638e-02 -7.6963681452716495e-02 0.0000000000000000e+00  4.4170491201683267e-02 -9.3717274029301884e-02 0.0000000000000000e+00  6.5951751686263105e-02 -6.36070119201