<?xml version="1.0"?>
<VTKFile type="UnstructuredGrid"  version="0.1"  >
<UnstructuredGrid>
<Piece  NumberOfPoints="1653" NumberOfCells="3110">
<Points>
<DataArray  type="Float64"  NumberOfComponents="3"  format="ascii">0 0 0  15 0 0  15 5.875663713993118 0  25.25312758510865 5.875663713993118 0  25.88237260417731 2.978289945955517 0  34.7721040418405 8.646484526632406 0  34.7721040418405 12.5 0  0 12.5 0  0.5 0 0  1 0 0  1.5 0 0  2 0 0  2.5 0 0  3 0 0  3.5 0 0  4 0 0  4.5 0 0  5 0 0  5.5 0 0  6 0 0  6.5 0 0  7 0 0  7.5 0 0  8 0 0  8.5 0 0  9 0 0  9.5 0 0  10 0 0  10.5 0 0  11 0 0  11.5 0 0  12 0 0  12.5 0 0  13 0 0  13.5 0 0  14 0 0  14.5 0 0  15 0.4896386428327599 0  15 0.9792772856655197 0  15 1.46891592849828 0  15 1.958554571331039 0  15 2.448193214163799 0  15 2.937831856996559 0  15 3.427470499829319 0  15 3.917109142662079 0  15 4.406747785494839 0  15 4.896386428327599 0  15 5.386025071160359 0  15.48824417071946 5.875663713993118 0  15.97648834143892 5.875663713993118 0  16.46473251215838 5.875663713993118 0  16.95297668287784 5.875663713993118 0  17.4412208535973 5.875663713993118 0  17.92946502431676 5.875663713993118 0  18.41770919503622 5.875663713993118 0  18.90595336575567 5.875663713993118 0  19.39419753647514 5.875663713993118 0  19.88244170719459 5.875663713993118 0  20.37068587791406 5.875663713993118 0  20.85893004863351 5.875663713993118 0  21.34717421935297 5.875663713993118 0  21.83541839007243 5.875663713993118 0  22.32366256079189 5.875663713993118 0  22.81190673151135 5.875663713993118 0  23.30015090223081 5.875663713993118 0  23.78839507295027 5.875663713993118 0  24.27663924366973 5.875663713993118 0  24.76488341438919 5.875663713993118 0  25.35800175495343 5.392768085986852 0  25.4628759247982 4.909872457980584 0  25.56775009464298 4.426976829974318 0  25.67262426448776 3.944081201968051 0  25.77749843433254 3.461185573961784 0  26.28645130588928 3.235935154168103 0  26.69053000760124 3.493580362380689 0  27.0946087093132 3.751225570593275 0  27.49868741102517 4.008870778805861 0  27.90276611273713 4.266515987018447 0  28.30684481444909 4.524161195231033 0  28.71092351616105 4.781806403443618 0  29.11500221787302 5.039451611656204 0  29.51908091958498 5.29709681986879 0  29.92315962129694 5.554742028081376 0  30.32723832300891 5.812387236293961 0  30.73131702472087 6.070032444506547 0  31.13539572643283 6.327677652719133 0  31.5394744281448 6.585322860931719 0  31.94355312985676 6.842968069144305 0  32.34763183156872 7.10061327735689 0  32.75171053328069 7.358258485569477 0  33.15578923499265 7.615903693782063 0  33.55986793670461 7.873548901994649 0  33.96394663841657 8.131194110207236 0  34.36802534012854 8.388839318419819 0  34.7721040418405 9.128173960803355 0  34.7721040418405 9.609863394974305 0  34.7721040418405 10.09155282914525 0  34.7721040418405 10.5732422633162 0  34.7721040418405 11.05493169748715 0  34.7721040418405 11.5366211316581 0  34.7721040418405 12.01831056582905 0  34.27535969838564 12.5 0  33.77861535493077 12.5 0  33.28187101147591 12.5 0  32.78512666802104 12.5 0  32.28838232456618 12.5 0  31.79163798111131 12.5 0  31.29489363765645 12.5 0  30.79814929420159 12.5 0  30.30140495074672 12.5 0  29.80466060729186 12.5 0  29.30791626383699 12.5 0  28.81117192038213 12.5 0  28.31442757692727 12.5 0  27.8176832334724 12.5 0  27.32093889001754 12.5 0  26.82419454656267 12.5 0  26.32745020310781 12.5 0  25.83070585965294 12.5 0  25.33396151619808 12.5 0  24.83721717274322 12.5 0  24.34047282928835 12.5 0  23.84372848583349 12.5 0  23.34698414237862 12.5 0  22.85023979892376 12.5 0  22.35349545546889 12.5 0  21.85675111201403 12.5 0  21.36000676855916 12.5 0  20.8632624251043 12.5 0  20.36651808164943 12.5 0  19.86977373819457 12.5 0  19.37302939473971 12.5 0  18.87628505128484 12.5 0  18.37954070782998 12.5 0  17.88279636437511 12.5 0  17.38605202092025 12.5 0  16.88930767746539 12.5 0  16.39256333401052 12.5 0  15.89581899055566 12.5 0  15.39907464710079 12.5 0  14.90233030364593 12.5 0  14.40558596019106 12.5 0  13.9088416167362 12.5 0  13.41209727328134 12.5 0  12.91535292982647 12.5 0  12.41860858637161 12.5 0  11.92186424291674 12.5 0  11.42511989946188 12.5 0  10.92837555600701 12.5 0  10.43163121255215 12.5 0  9.934886869097284 12.5 0  9.438142525642419 12.5 0  8.941398182187555 12.5 0  8.444653838732691 12.5 0  7.947909495277827 12.5 0  7.451165151822963 12.5 0  6.954420808368099 12.5 0  6.457676464913234 12.5 0  5.96093212145837 12.5 0  5.464187778003506 12.5 0  4.967443434548642 12.5 0  4.470699091093778 12.5 0  3.973954747638913 12.5 0  3.477210404184049 12.5 0  2.980466060729185 12.5 0  2.483721717274321 12.5 0  1.986977373819457 12.5 0  1.490233030364593 12.5 0  0.9934886869097284 12.5 0  0.4967443434548642 12.5 0  0 12 0  0 11.5 0  0 11 0  0 10.5 0  0 10 0  0 9.5 0  0 9 0  0 8.5 0  0 8 0  0 7.5 0  0 7 0  0 6.5 0  0 6 0  0 5.5 0  0 5 0  0 4.5 0  0 4 0  0 3.5 0  0 3 0  0 2.5 0  0 2 0  0 1.5 0  0 1 0  0 0.5 0  6.706048636640666 12.06980677938187 0  8.765655493751018 0.4139370408741208 0  6.247994107943841 0.4318453460527492 0  9.212954942171471 12.09495389262113 0  0.4192527580926875 6.290033382784122 0  14.57653513662745 5.630741178905863 0  4.671224449040075 12.07735585711953 0  11.17673993551049 12.08436209540134 0  0.422619674032326 4.270294574965303 0  10.76300918468793 0.4745525526580785 0  0.4212753361847383 8.287660144489639 0  4.250000000000002 0.4330127018922196 0  29.89587780379367 6.060189090395258 0  27.56932314652462 12.0746148395123 0  14.57783075635583 6.122664708035333 0  14.15293430587079 5.875654538929426 0  14.15430267134427 6.368098754959442 0  13.72854073831227 6.120433673198454 0  20.6582805506728 6.366084790226918 0  18.67489043323101 6.27598127515944 0  22.59056737568242 6.29606613245253 0  16.7440341452457 6.315839589561497 0  24.50593878937923 6.277545771531317 0  29.55608818967848 12.08009799666979 0  13.72755433163761 6.591009182142216 0  13.30322671492114 6.364756914143253 0  25.58282687527388 12.07214685128037 0  15.58833076806707 12.09099135005039 0  19.53450521753259 12.0774486260322 0  21.60493534216747 12.10799994003669 0  17.63464270450849 12.06991012322385 0  23.64026599994061 12.07773483247372 0  13.31529703046496 6.925184845786911 0  12.88073282565704 6.61982857543414 0  12.87828283233353 6.120214058324139 0  12.45182437419081 6.364320059921759 0  12.45200290778084 5.872453021298181 0  12.02533293904001 6.118153689879555 0  11.99564063167367 6.574400282488305 0  11.5903685280366 6.339958750693114 0  11.5979845667326 5.868775056858306 0  11.17015312126326 6.113980861392716 0  11.17476594150754 6.679603658695117 0  10.74216827207994 6.372092499054839 0  10.74817330069909 5.869038942364121 0  10.31646529296824 6.118762845232538 0  10.27348886585601 6.588465447446576 0  9.887807553573767 6.364701823983266 0  9.88780158410634 5.870305947001337 0  9.463178485565839 6.113091249982512 0  9.453937849570291 6.602302363630191 0  9.030309002589551 6.362632915820694 0  9.039219543834303 5.862421039448456 0  8.603162747184514 6.116243376871223 0  8.578125751355653 6.683805234504359 0  8.172398770888572 6.365345282840592 0  8.175328908369647 5.868065937514294 0  7.743472033392759 6.117696835860215 0  7.742986992603729 6.61362327278608 0  7.322732623503098 6.382401085358908 0  7.317222823989535 5.871077872977187 0  6.885532893512533 6.121197154347535 0  6.894806366554779 6.634251791013131 0  6.455527751150409 6.370572184247717 0  6.457696333231636 5.867749398994406 0  14.12095349170953 6.813235641759253 0  31.4983762818229 7.034234396804716 0  6.455589955719219 6.867128171196666 0  6.023455216834774 6.616043536922213 0  6.023554974180074 7.112788816924163 0  13.69041137205445 12.1069146385136 0  5.592859637199695 6.864355502946545 0  31.54263923811344 12.09066522265891 0  12.25132680265406 0.4102367575415435 0  6.455817316497047 7.353853684943982 0  0.4330127018922187 9.75 0  2.732115487302975 0.4236271714090067 0  3.198452614091217 12.07768643605606 0  5.592872001071152 7.361120700913732 0  14.5840585143722 3.181470412802012 0  28.71173122034732 5.244212802660894 0  5.162040526349202 7.112598807141616 0  5.163854471474094 6.614515752890699 0  5.162274659011263 7.609876850299734 0  32.69069989499835 7.857575053884764 0  4.731324496583301 7.361354306560099 0  4.731629010943685 7.858795976396702 0  5.162595240614355 8.107226230034218 0  0.4317720527816284 2.752660339817988 0  4.732014947310041 8.356233019832846 0  4.300564604584455 7.610274335071973 0  34.35494875511391 10.33239754623073 0  5.162962790790649 8.604583900274013 0  4.732429272810581 8.853618911701995 0  5.163335275644 9.101935563798289 0  25.72094713207523 5.724235284606223 0  25.59291741355883 6.193703629324004 0  26.07827305575582 6.051820049155293 0  25.97378844624992 6.528875012023413 0  26.44577535830933 6.383327369760296 0  26.33922673752373 6.858740107805505 0  26.80444254829193 6.710218097626266 0  26.70069118283672 7.186943926575886 0  26.23566918201428 7.335835635362872 0  26.59757562415484 7.664683445610715 0  26.13138348560633 7.813564118550082 0  26.49371314148617 8.142642777840985 0  26.95987809227065 7.993525452192405 0  26.02736325057775 8.292022274628064 0  26.85612773147538 8.47161350370946 0  27.32227742849548 8.322400304707553 0  27.21851516461312 8.800659877737752 0  27.68477574735464 8.65137949251265 0  27.58103027909326 9.12969481760727 0  28.04713937056972 8.980159120440126 0  27.11447152566551 9.2793403205947 0  28.15105376318361 8.502696477268966 0  28.51299903161737 8.830859923580885 0  28.41052368424581 9.308987715715888 0  28.87559404705309 9.158794670068396 0  28.97839127529849 8.681453676316366 0  29.34030468280644 9.008990850457433 0  4.732839450557821 9.350972358262366 0  4.301925834792481 9.10266693694699 0  14.58356703849419 1.691204393790307 0  1.734922343928496 12.06176972078304 0  5.16373709642038 9.599236108804503 0  5.59414775037132 9.350276038145038 0  4.30229363748747 9.6000687154811 0  3.871255775041046 9.35172295694097 0  29.
[...]
<PointData  Vectors="u"> 
<DataArray  type="Float64"  Name="u"  NumberOfComponents="3" format="ascii">-9.6442787516997475e-02 8.7306436360875209e-03 0.0000000000000000e+00  -8.9551561469401353e-02 -1.8179369134135729e-04 0.0000000000000000e+00  -7.5394610514952359e-02 5.0717565405230701e-04 0.0000000000000000e+00  -4.3895610905694382e-02 -7.1265962132971176e-03 0.0000000000000000e+00  4.1023385799124942e-02 -1.5361152069840756e-02 0.0000000000000000e+00  -4.7725840852415713e-02 3.2326556317364675e-03 0.0000000000000000e+00  -4.9082643587279318e-02 0.0000000000000000e+00 0.0000000000000000e+00  -9.0760446246950663e-02 0.0000000000000000e+00 0.0000000000000000e+00  -9.5941639261497486e-02 8.5054969251734044e-03 0.0000000000000000e+00  -9.5437568701544781e-02 8.2840461647002324e-03 0.0000000000000000e+00  -9.4933216069462284e-02 8.0720001678519886e-03 0.0000000000000000e+00  -9.4431545559622201e-02 7.8735707399209300e-03 0.0000000000000000e+00  -9.3937227909743376e-02 7.6892107948357252e-03 0.0000000000000000e+00  -9.3453989403431817e-02 7.5175977179069891e-03 0.0000000000000000e+00  -9.2985474561464693e-02 7.3629708250954927e-03 0.0000000000000000e+00  -9.2530342169403174e-02 7.2233590162687046e-03 0.0000000000000000e+00  -9.2097298710051692e-02 7.0897270913295287e-03 0.0000000000000000e+00  -9.1687562482188387e-02 6.9653400179223854e-03 0.0000000000000000e+00  -9.1303627680438940e-02 6.8455419358721195e-03 0.0000000000000000e+00  -9.0948024345529677e-02 6.7273372792974679e-03 0.0000000000000000e+00  -9.0622702787884549e-02 6.6046025307649903e-03 0.0000000000000000e+00  -9.0328753733536896e-02 6.4781113213259493e-03 0.0000000000000000e+00  -9.0070928866976180e-02 6.3400532757243600e-03 0.0000000000000000e+00  -8.9847698817981603e-02 6.1852871386201928e-03 0.0000000000000000e+00  -8.9659694658461631e-02 6.0084524679264954e-03 0.0000000000000000e+00  -8.9512146378214932e-02 5.8055283439789928e-03 0.0000000000000000e+00  -8.9400348826684753e-02 5.5680827290947752e-03 0.0000000000000000e+00  -8.9326408807407207e-02 5.2927352517343883e-03 0.0000000000000000e+00  -8.9287204866003139e-02 4.9710593859652657e-03 0.0000000000000000e+00  -8.9278168022726284e-02 4.5987007232710705e-03 0.0000000000000000e+00  -8.9299293808360519e-02 4.1718059686815124e-03 0.0000000000000000e+00  -8.9340252065565604e-02 3.6833289023172401e-03 0.0000000000000000e+00  -8.9395155771010593e-02 3.1373975647112956e-03 0.0000000000000000e+00  -8.9450440798909320e-02 2.5333849633768718e-03 0.0000000000000000e+00  -8.9499165938779005e-02 1.8847647064534115e-03 0.0000000000000000e+00  -8.9533861734909362e-02 1.2033231979820687e-03 0.0000000000000000e+00  -8.9549458863882617e-02 5.0865633316793000e-04 0.0000000000000000e+00  -8.8884398327565409e-02 -1.8388552739164767e-04 0.0000000000000000e+00  -8.8221746167003928e-02 -1.9889004955192069e-04 0.0000000000000000e+00  -8.7548373641962204e-02 -2.3336510289516418e-04 0.0000000000000000e+00  -8.6844204842316766e-02 -2.8758110087519445e-04 0.0000000000000000e+00  -8.6088755453668037e-02 -3.5825902808464934e-04 0.0000000000000000e+00  -8.5260091709969371e-02 -4.4044326948688273e-04 0.0000000000000000e+00  -8.4333996082823992e-02 -5.2263892088316385e-04 0.0000000000000000e+00  -8.3278360665104009e-02 -5.9306172524887233e-04 0.0000000000000000e+00  -8.2044454803548342e-02 -6.2872684883328938e-04 0.0000000000000000e+00  -8.0550134937106693e-02 -5.8048705790999632e-04 0.0000000000000000e+00  -7.8614567256767853e-02 -3.2501523177602920e-04 0.0000000000000000e+00  -7.3205631809774532e-02 1.6260436283591839e-03 0.0000000000000000e+00  -7.1738551456025618e-02 2.0952763253719408e-03 0.0000000000000000e+00  -7.0509888662413339e-02 2.4447586572196671e-03 0.0000000000000000e+00  -6.9400898949807041e-02 2.6743498672000088e-03 0.0000000000000000e+00  -6.8365571410625880e-02 2.8360082324578768e-03 0.0000000000000000e+00  -6.7367610744906811e-02 2.9215473009567431e-03 0.0000000000000000e+00  -6.6392652514727118e-02 2.9542673206435742e-03 0.0000000000000000e+00  -6.5434466637064786e-02 2.9329630028306799e-03 0.0000000000000000e+00  -6.4474543716546318e-02 2.8559580391351079e-03 0.0000000000000000e+00  -6.3504546482622881e-02 2.7270132549052110e-03 0.0000000000000000e+00  -6.2516003211220486e-02 2.5428854676199661e-03 0.0000000000000000e+00  -6.1491438965573034e-02 2.3056770838127392e-03 0.0000000000000000e+00  -6.0428697684242604e-02 1.9983545170713930e-03 0.0000000000000000e+00  -5.9304692347406755e-02 1.6267583806448800e-03 0.0000000000000000e+00  -5.8095829352532609e-02 1.1943358922021493e-03 0.0000000000000000e+00  -5.6780069306582935e-02 6.6702491781535681e-04 0.0000000000000000e+00  -5.5314671994826328e-02 1.6177488107772721e-05 0.0000000000000000e+00  -5.3610153620799170e-02 -8.1522911700712534e-04 0.0000000000000000e+00  -5.1489461008924771e-02 -1.8964719692203171e-03 0.0000000000000000e+00  -4.8506577022502231e-02 -3.5462075822560672e-03 0.0000000000000000e+00  -3.2644068206976261e-02 -1.1011122433607872e-02 0.0000000000000000e+00  -2.1792290998843545e-02 -1.3510839289060711e-02 0.0000000000000000e+00  -9.2766211426750563e-03 -1.5193134639389313e-02 0.0000000000000000e+00  5.3571487757267944e-03 -1.6387303690042106e-02 0.0000000000000000e+00  2.2029479382937141e-02 -1.6548725551717033e-02 0.0000000000000000e+00  2.6459798251453830e-02 -3.1617629939783010e-03 0.0000000000000000e+00  1.3185530945196049e-02 5.0520744322673028e-03 0.0000000000000000e+00  1.4724599431405509e-03 1.0071890636957419e-02 0.0000000000000000e+00  -8.4389026885219286e-03 1.2860897582361168e-02 0.0000000000000000e+00  -1.6578300992978197e-02 1.4067824136190645e-02 0.0000000000000000e+00  -2.3087082157250333e-02 1.4395777719464525e-02 0.0000000000000000e+00  -2.8382918394227782e-02 1.4078094892228672e-02 0.0000000000000000e+00  -3.2608102382810096e-02 1.3424559511750216e-02 0.0000000000000000e+00  -3.5984346633697442e-02 1.2574014907473669e-02 0.0000000000000000e+00  -3.8689854137639042e-02 1.1604162830632179e-02 0.0000000000000000e+00  -4.0858959598926624e-02 1.0629396451463978e-02 0.0000000000000000e+00  -4.2606792353118976e-02 9.6455735811069015e-03 0.0000000000000000e+00  -4.3999397623970579e-02 8.6581779226177092e-03 0.0000000000000000e+00  -4.5107856717612416e-02 7.6950366938487655e-03 0.0000000000000000e+00  -4.5969932978677033e-02 6.8029941010346465e-03 0.0000000000000000e+00  -4.6626815046701797e-02 5.9778508416330148e-03 0.0000000000000000e+00  -4.7105969815408696e-02 5.2407498148030959e-03 0.0000000000000000e+00  -4.7420706782041480e-02 4.5688564149995404e-03 0.0000000000000000e+00  -4.7622718260828062e-02 4.0232810896379039e-03 0.0000000000000000e+00  -4.7709059901203242e-02 3.5886809119777046e-03 0.0000000000000000e+00  -4.7730047021597256e-02 3.3169738449634794e-03 0.0000000000000000e+00  -4.7772709938534802e-02 3.1877363282353578e-03 0.0000000000000000e+00  -4.7960342408585876e-02 3.0234861952715009e-03 0.0000000000000000e+00  -4.8212714021800045e-02 2.7348138875751015e-03 0.0000000000000000e+00  -4.8483271402422472e-02 2.3323546434479959e-03 0.0000000000000000e+00  -4.8722457858212914e-02 1.8345311829236024e-03 0.0000000000000000e+00  -4.8908823433323735e-02 1.2640376678331633e-03 0.0000000000000000e+00  -4.9030355862216650e-02 6.4667726217022673e-04 0.0000000000000000e+00  -4.9335390185627367e-02 0.0000000000000000e+00 0.0000000000000000e+00  -4.9600833568585974e-02 0.0000000000000000e+00 0.0000000000000000e+00  -4.9902413824394629e-02 0.0000000000000000e+00 0.0000000000000000e+00  -5.0259346504098371e-02 0.0000000000000000e+00 0.0000000000000000e+00  -5.0681287318260972e-02 0.0000000000000000e+00 0.0000000000000000e+00  -5.1170269101566489e-02 0.0000000000000000e+00 0.0000000000000000e+00  -5.1725703960409465e-02 0.0000000000000000e+00 0.0000000000000000e+00  -5.2339522826007255e-02 0.0000000000000000e+00 0.0000000000000000e+00  -5.2998713313195944e-02 0.0000000000000000e+00 0.0000000000000000e+00  -5.3686964693380280e-02 0.0000000000000000e+00 0.0000000000000000e+00  -5.4389443264027504e-02 0.0000000000000000e+00 0.0000000000000000e+00  -5.5087680969159808e-02 0.0000000000000000e+00 0.0000000000000000e+00  -5.5762564085301128e-02 0.0000000000000000e+00 0.0000000000000000e+00  -5.6398530733543811e-02 0.0000000000000000e+00 0.0000000000000000e+00  -5.6985187419856295e-02 0.0000000000000000e+00 0.0000000000000000e+00  -5.7514669941219988e-02 0.0000000000000000e+00 0.0000000000000000e+00  -5.7984916209818001e-02 0.0000000000000000e+00 0.0000000000000000e+00  -5.8403165696004698e-02 0.0000000000000000e+00 0.0000000000000000e+00  -5.8776808607827254e-02 0.0000000000000000e+00 0.0000000000000000e+00  -5.9123509919844837e-02 0.0000000000000000e+00 0.0000000000000000e+00  -5.9460329484113283e-02 0.0000000000000000e+00 0.0000000000000000e+00  -5.9806883371718120e-02 0.0000000000000000e+00 0.0000000000000000e+00  -6.0175964009881899e-02 0.0000000000000000e+00 0.0000000000000000e+00  -6.0579829081259758e-02 0.0000000000000000e+00 0.0000000000000000e+00  -6.1026056624678242e-02 0.0000000000000000e+00 0.0000000000000000e+00  -6.1516582973529070e-02 0.0000000000000000e+00 0.0000000000000000e+00  -6.2054217103454254e-02 0.0000000000000000e+00 0.0000000000000000e+00  -6.2633683162512527e-02 0.0000000000000000e+00 0.0000000000000000e+00  -6.3251590358956639e-02 0.0000000000000000e+00 0.0000000000000000e+00  -6.3903908131570278e-02 0.0000000000000000e+00 0.0000000000000000e+00  -6.4582044016809656e-02 0.0000000000000000e+00 0.0000000000000000e+00  -6.5275980378169854e-02 0.0000000000000000e+00 0.0000000000000000e+00  -6.5981884131564111e-02 0.0000000000000000e+00 0.0000000000000000e+00  -6.6695099990944764e-02 0.0000000000000000e+00 0.0000000000000000e+00  -6.7409691883743642e-02 0.0000000000000000e+00 0.0000000000000000e+00  -6.8121578373658745e-02 0.0000000000000000e+00 0.0000000000000000e+00  -6.8829132694142300e-02 0.0000000000000000e+00 0.0000000000000000e+00  -6.9531440378901438e-02 0.0000000000000000e+00 0.0000000000000000e+00  -7.0229193932858744e-02 0.0000000000000000e+00 0.0000000000000000e+00  -7.0923302550035858e-02 0.0000000000000000e+00 0.0000000000000000e+00  -7.1615100855990349e-02 0.0000000000000000e+00 0.0000000000000000e+00  -7.2307877390748371e-02 0.0000000000000000e+00 0.0000000000000000e+00  -7.3003172793129290e-02 0.0000000000000000e+00 0.0000000000000000e+00  -7.3698604494356376e-02 0.0000000000000000e+00 0.0000000000000000e+00  -7.4403902415061313e-02 0.0000000000000000e+00 0.0000000000000000e+00  -7.5111186159497120e-02 0.0000000000000000e+00 0.0000000000000000e+00  -7.5820874917612829e-02 0.0000000000000000e+00 0.0000000000000000e+00  -7.6532795652255695e-02 0.0000000000000000e+00 0.0000000000000000e+00  -7.7244978568406203e-02 0.0000000000000000e+00 0.0000000000000000e+00  -7.7955016917337722e-02 0.0000000000000000e+00 0.0000000000000000e+00  -7.8661695653154853e-02 0.0000000000000000e+00 0.0000000000000000e+00  -7.9363399404222781e-02 0.0000000000000000e+00 0.0000000000000000e+00  -8.0059362670409903e-02 0.0000000000000000e+00 0.0000000000000000e+00  -8.0747783152165797e-02 0.0000000000000000e+00 0.0000000000000000e+00  -8.1427233206494448e-02 0.0000000000000000e+00 0.0000000000000000e+00  -8.2098207749166957e-02 0.0000000000000000e+00 0.0000000000000000e+00  -8.2759973917229168e-02 0.0000000000000000e+00 0.0000000000000000e+00  -8.3411228494165351e-02 0.0000000000000000e+00 0.0000000000000000e+00  -8.4053474622772725e-02 0.0000000000000000e+00 0.0000000000000000e+00  -8.4686567783186520e-02 0.0000000000000000e+00 0.0000000000000000e+00  -8.5311089288088726e-02 0.0000000000000000e+00 0.0000000000000000e+00  -8.5927633331681075e-02 0.0000000000000000e+00 0.0000000000000000e+00  -8.6537968505249876e-02 0.0000000000000000e+00 0.0000000000000000e+00  -8.7142588427638071e-02 0.0000000000000000e+00 0.0000000000000000e+00  -8.7743051275407657e-02 0.0000000000000000e+00 0.0000000000000000e+00  -8.8341293475887803e-02 0.0000000000000000e+00 0.0000000000000000e+00  -8.8939986975538871e-02 0.0000000000000000e+00 0.0000000000000000e+00  -8.9541481040173454e-02 0.0000000000000000e+00 0.0000000000000000e+00  -9.0147422535417909e-02 0.0000000000000000e+00 0.0000000000000000e+00  -9.0780277163114542e-02 5.1354579447209338e-04 0.0000000000000000e+00  -9.0828440659637341e-02 1.0237760884872897e-03 0.0000000000000000e+00  -9.0909907613425961e-02 1.5289932951924859e-03 0.0000000000000000e+00  -9.1022679679900229e-02 2.0272583147125916e-03 0.0000000000000000e+00  -9.1165617648594530e-02 2.5161109730012479e-03 0.0000000000000000e+00  -9.1336169726303360e-02 2.9927828562530318e-03 0.0000000000000000e+00  -9.1534446434124256e-02 3.4571817709981071e-03 0.0000000000000000e+00  -9.1757094129131717e-02 3.9054469916584528e-03 0.0000000000000000e+00  -9.2001712920391221e-02 4.3362979144045358e-03 0.0000000000000000e+00  -9.2265705506727441e-02 4.7485603951616289e-03 0.0000000000000000e+00  -9.2546276775377495e-02 5.1407772557382917e-03 0.0000000000000000e+00  -9.2839692786769998e-02 5.5118625523532128e-03 0.0000000000000000e+00  -9.3143221452826663e-02 5.8614244905320755e-03 0.0000000000000000e+00  -9.3452603838056134e-02 6.1889742493009695e-03 0.0000000000000000e+00  -9.3764975683175836e-02 6.4948195058000162e-03 0.0000000000000000e+00  -9.4076094067912119e-02 6.7793983093086549e-03 0.0000000000000000e+00  -9.4382900998048691e-02 7.0438659638046965e-03 0.0000000000000000e+00  -9.4682024030469908e-02 7.2897751771111479e-03 0.0000000000000000e+00  -9.4970750618424180e-02 7.5192954037818869e-03 0.0000000000000000e+00  -9.5246683458181866e-02 7.7352537825865235e-03 0.0000000000000000e+00  -9.5508625017081725e-02 7.9408520530522986e-03 0.0000000000000000e+00  -9.5756654340069219e-02 8.1395907803159615e-03 0.0000000000000000e+00  -9.5992443387228621e-02 8.3351664339191747e-03 0.0000000000000000e+00  -9.6219083630907809e-02 8.5318059051507113e-03 0.0000000000000000e+00  -8.2446297276305064e-02 3.0355233406782148e-04 0.0000000000000000e+00  -8.9376614050956441e-02 5.8529259672277989e-03 0.0000000000000000e+00  -9.0649842688423216e-02 6.5539167775018033e-03 0.0000000000000000e+00  -7.8996193609014068e-02 2.5507753257264911e-04 0.0000000000000000e+00  -9.2497270402563142e-02 5.4259305279785374e-03 0.0000000000000000e+00  -7.7314077258650998e-02 1.1599544055686110e-03 0.0000000000000000e+00  -8.5074628442119507e-02 3.1248030352939928e-04 0.0000000000000000e+00  -7.6191772740678329e-02 2.0953356919483726e-04 0.0000000000000000e+00  -9.3772722163377245e-02 6.6604129868049391e-03 0.0000000000000000e+00  -8.8894019219956877e-02 4.7724534819895987e-03 0.0000000000000000e+00  -9.1361414539314137e-02 3.9009778678637226e-03 0.0000000000000000e+00  -9.2175906438451721e-02 7.0057647577409562e-03 0.0000000000000000e+00  -4.0882854294300955e-02 1.1412085468836829e-02 0.0000000000000000e+00  -5.6662015386220593e-02 3.7283745562881088e-04 0.0000000000000000e+00  -7.5510099149138810e-02 1.0837426418581991e-03 0.0000000000000000e+00  -7.7057148191285105e-02 1.6673324547066839e-03 0.0000000000000000e+00  -7.5746016375166550e-02 1.4779104889715950e-03 0.0000000000000000e+00  -7.7073364903979577e-02 1.9909175123490508e-03 0.0000000000000000e+00  -6.1719108372569345e-02 1.9935796668593612e-03 0.0000000000000000e+00  -6.5863140067485851e-02 2.6316606015375937e-03 0.0000000000000000e+00  -5.7058825797216634e-02 4.5599351751013877e-04 0.0000000000000000e+00  -6.9981056059359545e-02 2.1925615797035668e-03 0.0000000000000000e+00  -5.0227707646379856e-02 -3.2642621712596384e-03 0.0000000000000000e+00  -5.3997236288562699e-02 6.6339393552716493e-04 0.0000000000000000e+00  -7.6067837562162455e-02 1.7786481652419812e-03 0.0000000000000000e+00  -7.7206808775590427e-02 2.2241452576239316e-03 0.0000000000000000e+00  -5.8558100747033645e-02 -3.0031041483596968e-05 0.0000000000000000e+00  -6.9974464379089579e-02 7.0431190612578107e-05 0.0000000000000000e+00  -6.4351377465768120e-02 1.9912876583509354e-05 0.0000000000000000e+00  -6.1763679937517031e-02 -8.6530118056916524e-05 0.0000000000000000e+00  -6.7056982748115168e-02 6.0960498152706279e-05 0.0000000000000000e+00  -5.9917875421270736e-02 -1.8366354099893026e-04 0.0000000000000000e+00  -7.6190350638069282e-02 1.9407497221200882e-03 0.0000000000000000e+00  -7.7393713418364415e-02 2.3892561797832380e-03 0.0000000000000000e+00  -7.8343662415939083e-02 2.6364711604908498e-03 0.0000000000000000e+00  -7.8479174770942614e-02 2.7742328350641179e-03 0.0000000000000000e+00  -7.9413769275997650e-02 3.0015367663240836e-03 0.0000000000000000e+00  -7.9494995535844257e-02 3.1147510529835371e-03 0.0000000000000000e+00  -7.8768390070883168e-02 2.8977864176509063e-03 0.0000000000000000e+00  -7.9690512175087200e-02 3.1989473205874873e-03 0.0000000000000000e+00  -8.0459588987209715e-02 3.4222781670742663e-03 0.0000000000000000e+00  -8.0575397781476474e-02 3.4725221511091595e-03 0.0000000000000000e+00  -7.9731042691834786e-02 3.1765700899407012e-03 0.0000000000000000e+00  -8.0727260601380024e-02 3.4830339589392769e-03 0.0000000000000000e+00  -8.1453083152301098e-02 3.7341921189935228e-03 0.0000000000000000e+00  -8.1600297282942866e-02 3.7353762591434744e-03 0.0000000000000000e+00  -8.1028436011187546e-02 3.4944065767530861e-03 0.0000000000000000e+00  -8.1791201114070983e-02 3.7082614425018811e-03 0.0000000000000000e+00  -8.2433848721232897e-02 3.9654530899369354e-03 0.0000000000000000e+00  -8.2608312900577963e-02 3.9286748868238904e-03 0.0000000000000000e+00  -8.2032094312073839e-02 3.6629019833504125e-03 0.0000000000000000e+00  -8.2818173737839076e-02 3.8674363504505507e-03 0.0000000000000000e+00  -8.3395326174885001e-02 4.1335662445767920e-03 0.0000000000000000e+00  -8.3591691383636868e-02 4.0636876742944170e-03 0.0000000000000000e+00  -8.3003814819111510e-02 3.7496952691902781e-03 0.0000000000000000e+00  -8.3818005276721300e-02 3.9788638579862853e-03 0.0000000000000000e+00  -8.4344412848098779e-02 4.2497623573526976e-03 0.0000000000000000e+00  -8.4561455098666680e-02 4.1597372634736675e-03 0.0000000000000000e+00  -8.4067570765772079e-02 3.8789980808510041e-03 0.0000000000000000e+00  -8.4775798167955149e-02 4.0473005428995840e-03 0.0000000000000000e+00  -8.5280875144832194e-02 4.3322529384315954e-03 0.0000000000000000e+00  -8.5514338345638610e-02 4.2291417347127130e-03 0.0000000000000000e+00  -8.5032477966174150e-02 3.9334953486676923e-03 0.0000000000000000e+00  -8.5767186559660688e-02 4.1184048509422906e-03 0.0000000000000000e+00  -8.6217781282966074e-02 4.4021228606854028e-03 0.0000000000000000e+00  -7.5006522434927586e-02 1.3611617677628113e-03 0.0000000000000000e+00  -4.5679676622122807e-02 7.6543081447308925e-03 0.0000000000000000e+00  -8.5337548942029995e-02 3.8247765761932036e-03 0.0000000000000000e+00  -8.6043841169404556e-02 4.0040540684106330e-03 0.0000000000000000e+00  -8.5639052455778519e-02 3.7024977556520174e-03 0.0000000000000000e+00  -7.2624041015731930e-02 1.0961485512512845e-04 0.0000000000000000e+00  -8.6332445556583329e-02 3.8842103345524933e-03 0.0000000000000000e+00  -5.1400352225824723e-02 6.3925017785480722e-04 0.0000000000000000e+00  -8.8912641148190308e-02 3.4293435943228649e-03 0.0000000000000000e+00  -8.4938340043371793e-02 3.5253789873135009e-03 0.0000000000000000e+00  -9.0722160630034493e-02 2.6196981403178296e-03 0.0000000000000000e+00  -9.3555036303730202e-02 7.4451842285693627e-03 0.0000000000000000e+00  -8.6891017314100136e-02 3.3042632142338279e-04 0.0000000000000000e+00  -8.5951299061140810e-02 3.5752434977312530e-03 0.0000000000000000e+00  -8.4828949333310047e-02 3.0085148561212146e-04 0.0000000000000000e+00  -3.2926529256314528e-02 1.3707225992424538e-02 0.0000000000000000e+00  -8.6635711639924839e-02 3.7625369231747189e-03 0.0000000000000000e+00  -8.7014113841131835e-02 4.0687551424996434e-03 0.0000000000000000e+00  -8.6276166638304536e-02 3.4459938085247680e-03 0.0000000000000000e+00  -4.7245935277883233e-02 5.2221479884679298e-03 0.0000000000000000e+00  -8.6951349579604778e-02 3.6400371975228310e-03 0.0000000000000000e+0