<?xml version="1.0"?>
<VTKFile type="UnstructuredGrid"  version="0.1"  >
<UnstructuredGrid>
<Piece  NumberOfPoints="1533" NumberOfCells="2834">
<Points>
<DataArray  type="Float64"  NumberOfComponents="3"  format="ascii">40 0 0  7.330387627506148 0 0  7.330387627506148 4.888406282161917 0  5 3.085269966774792 0  5 7.310439617581245 0  17.66204461818256 9.23237906682008 0  17.2900890790293 3.707817067951056 0  29.95213369721186 5.189560382418755 0  29.95213369721186 9.414730033225208 0  27.62174606970571 7.611593717838083 0  27.62174606970571 12.5 0  40 12.5 0  39.50500587314404 0 0  39.01001174628806 0 0  38.5150176194321 0 0  38.02002349257613 0 0  37.52502936572017 0 0  37.03003523886419 0 0  36.53504111200823 0 0  36.04004698515226 0 0  35.54505285829629 0 0  35.05005873144032 0 0  34.55506460458436 0 0  34.06007047772839 0 0  33.56507635087242 0 0  33.07008222401646 0 0  32.57508809716049 0 0  32.08009397030452 0 0  31.58509984344855 0 0  31.09010571659259 0 0  30.59511158973662 0 0  30.10011746288065 0 0  29.60512333602468 0 0  29.11012920916872 0 0  28.61513508231275 0 0  28.12014095545678 0 0  27.62514682860081 0 0  27.13015270174485 0 0  26.63515857488888 0 0  26.14016444803291 0 0  25.64517032117694 0 0  25.15017619432098 0 0  24.65518206746501 0 0  24.16018794060904 0 0  23.66519381375307 0 0  23.17019968689711 0 0  22.67520556004114 0 0  22.18021143318517 0 0  21.6852173063292 0 0  21.19022317947324 0 0  20.69522905261727 0 0  20.2002349257613 0 0  19.70524079890534 0 0  19.21024667204937 0 0  18.7152525451934 0 0  18.22025841833743 0 0  17.72526429148147 0 0  17.2302701646255 0 0  16.73527603776953 0 0  16.24028191091356 0 0  15.7452877840576 0 0  15.25029365720163 0 0  14.75529953034566 0 0  14.26030540348969 0 0  13.76531127663372 0 0  13.27031714977776 0 0  12.77532302292179 0 0  12.28032889606583 0 0  11.78533476920986 0 0  11.29034064235389 0 0  10.79534651549792 0 0  10.30035238864195 0 0  9.805358261785987 0 0  9.310364134930019 0 0  8.815370008074051 0 0  8.320375881218084 0 0  7.82538175436212 0 0  7.330387627506148 0.4888406282161917 0  7.330387627506148 0.9776812564323833 0  7.330387627506148 1.466521884648575 0  7.330387627506148 1.955362512864767 0  7.330387627506148 2.444203141080958 0  7.330387627506148 2.93304376929715 0  7.330387627506148 3.421884397513342 0  7.330387627506148 3.910725025729533 0  7.330387627506148 4.399565653945725 0  6.941989689588457 4.587883562930729 0  6.553591751670766 4.287360843699542 0  6.165193813753074 3.986838124468354 0  5.776795875835383 3.686315405237167 0  5.388397937917691 3.385792686005979 0  5 3.554733261308843 0  5 4.024196555842893 0  5 4.493659850376943 0  5 4.963123144910994 0  5 5.432586439445044 0  5 5.902049733979094 0  5 6.371513028513146 0  5 6.840976323047196 0  5.487001716083944 7.384360365628893 0  5.97400343216789 7.458281113676541 0  6.461005148251834 7.532201861724188 0  6.948006864335779 7.606122609771836 0  7.435008580419723 7.680043357819483 0  7.922010296503668 7.75396410586713 0  8.409012012587613 7.827884853914778 0  8.896013728671557 7.901805601962425 0  9.383015444755502 7.975726350010072 0  9.870017160839446 8.04964709805772 0  10.35701887692339 8.123567846105368 0  10.84402059300734 8.197488594153015 0  11.33102230909128 8.271409342200663 0  11.81802402517523 8.345330090248311 0  12.30502574125917 8.419250838295957 0  12.79202745734311 8.493171586343605 0  13.27902917342706 8.567092334391253 0  13.766030889511 8.641013082438899 0  14.25303260559495 8.714933830486547 0  14.74003432167889 8.788854578534195 0  15.22703603776284 8.862775326581843 0  15.71403775384678 8.93669607462949 0  16.20103946993073 9.010616822677138 0  16.68804118601467 9.084537570724786 0  17.17504290209862 9.158458318772432 0  17.63104832325313 8.771998900247661 0  17.60005202832368 8.311618733675243 0  17.56905573339425 7.851238567102824 0  17.53805943846481 7.390858400530405 0  17.50706314353537 6.930478233957986 0  17.47606684860593 6.470098067385567 0  17.44507055367649 6.009717900813149 0  17.41407425874705 5.54933773424073 0  17.38307796381762 5.088957567668311 0  17.35208166888818 4.628577401095892 0  17.32108537395874 4.168197234523475 0  17.77709079511325 3.764807195430583 0  18.26409251119719 3.821797322910109 0  18.75109422728114 3.878787450389636 0  19.23809594336508 3.935777577869163 0  19.72509765944902 3.99276770534869 0  20.21209937553297 4.049757832828217 0  20.69910109161691 4.106747960307744 0  21.18610280770086 4.163738087787271 0  21.6731045237848 4.220728215266798 0  22.16010623986875 4.277718342746325 0  22.64710795595269 4.334708470225851 0  23.13410967203664 4.391698597705378 0  23.62111138812058 4.448688725184905 0  24.10811310420453 4.505678852664432 0  24.59511482028847 4.562668980143959 0  25.08211653637242 4.619659107623486 0  25.56911825245636 4.676649235103013 0  26.0561199685403 4.733639362582539 0  26.54312168462425 4.790629490062067 0  27.0301234007082 4.847619617541593 0  27.51712511679214 4.90460974502112 0  28.00412683287608 4.961599872500647 0  28.49112854896003 5.018589999980174 0  28.97813026504397 5.075580127459701 0  29.46513198112792 5.132570254939227 0  29.95213369721186 5.659023676952805 0  29.95213369721186 6.128486971486855 0  29.95213369721186 6.597950266020906 0  29.95213369721186 7.067413560554956 0  29.95213369721186 7.536876855089007 0  29.95213369721186 8.006340149623057 0  29.95213369721186 8.475803444157108 0  29.95213369721186 8.945266738691158 0  29.56373575929417 9.114207313994021 0  29.17533782137648 8.813684594762833 0  28.78693988345879 8.513161875531646 0  28.3985419455411 8.212639156300458 0  28.01014400762341 7.912116437069271 0  27.62174606970571 8.100434346054275 0  27.62174606970571 8.589274974270467 0  27.62174606970571 9.078115602486658 0  27.62174606970571 9.56695623070285 0  27.62174606970571 10.05579685891904 0  27.62174606970571 10.54463748713523 0  27.62174606970571 11.03347811535142 0  27.62174606970571 11.52231874356762 0  27.62174606970571 12.01115937178381 0  28.11687622691749 12.5 0  28.61200638412926 12.5 0  29.10713654134103 12.5 0  29.6022666985528 12.5 0  30.09739685576457 12.5 0  30.59252701297634 12.5 0  31.08765717018812 12.5 0  31.58278732739988 12.5 0  32.07791748461166 12.5 0  32.57304764182343 12.5 0  33.0681777990352 12.5 0  33.56330795624697 12.5 0  34.05843811345874 12.5 0  34.55356827067052 12.5 0  35.04869842788229 12.5 0  35.54382858509405 12.5 0  36.03895874230583 12.5 0  36.5340888995176 12.5 0  37.02921905672937 12.5 0  37.52434921394114 12.5 0  38.01947937115291 12.5 0  38.51460952836469 12.5 0  39.00973968557646 12.5 0  39.50486984278822 12.5 0  40 12 0  40 11.5 0  40 11 0  40 10.5 0  40 10 0  40 9.5 0  40 9 0  40 8.5 0  40 8 0  40 7.5 0  40 7 0  40 6.5 0  40 6 0  40 5.5 0  40 5 0  40 4.5 0  40 4 0  40 3.5 0  40 3 0  40 2.5 0  40 2 0  40 1.5 0  40 1 0  40 0.5 0  30.34876352235398 7.327917654576357 0  39.56698729810778 5.25 0  34.78667490803743 0.4205174451627025 0  39.56698729810778 7.25 0  30.3585468336511 5.427160820190158 0  34.84379404653929 12.04702676173489 0  16.95624729100351 4.07194119951179 0  12.12554212889321 7.960534606456823 0  11.53770934890838 0.4226367813753207 0  7.753736029943314 4.155145339837629 0  13.52294491955307 0.4029050847486602 0  30.35953211285928 9.179582138558688 0  32.80339955493994 0.4689635042655613 0  39.60498071736533 3.286027211129543 0  39.56698729810778 9.25 0  14.11494101702706 8.248201851911706 0  10.18333765398823 7.656930854545912 0  30.35990683530323 4.955700295712383 0  30.76694423300265 5.189561032087385 0  36.71080359251071 12.04188736987418 0  36.7929581102345 0.436804725270358 0  33.31218172874837 12.06880282411326 0  10.05285532521397 0.4286774885813651 0  17.01673002302197 5.368802194599763 0  30.76826340003479 4.718902050277749 0  31.18175756050234 4.96140631154538 0  29.35877288319807 0.4291131145453591 0  15.00197536231182 0.4440388984995618 0  31.17823626084373 4.481217635233613 0  31.59415226346679 4.725952450498395 0  27.87243273931609 0.4285963418889001 0  26.38758537484214 0.4070722201735846 0  28.31445887006738 4.562139561096351 0  30.76139987959141 4.248387304156489 0  7.734595491697149 2.639100822404227 0  31.58993775778283 4.242754898206634 0  31.99822937109275 4.481039152669883 0  32.00324151000606 4.965800929262945 0  32.40713312436011 4.708084028948184 0  32.41324971610097 5.206251942088715 0  32.82552830226771 4.945786747742412 0  32.82688135366563 5.441677214096542 0  33.24181814888036 5.197404396853738 0  33.24277800090717 5.684473768757075 0  33.65644632678588 5.430650065586264 0  33.66144269430579 5.922695405335431 0  34.07855486068591 5.670336763662869 0  34.08074494492435 6.164880809523112 0  34.50557766258834 5.916718446008522 0  34.50153008886293 6.408573545009421 0  34.50082842625792 5.404391010876778 0  34.08025123900136 6.651643856105366 0  34.49999657439254 6.895801470973519 0  34.07855926990739 7.137866188996368 0  34.49928990280204 7.38152042953314 0  34.9293211467124 6.162008281271914 0  34.07703828567635 7.623986897370042 0  33.2322674320025 4.680006847722384 0  34.49797040062022 7.868076225204812 0  34.92080505301801 7.625517574775365 0  34.91959139010132 8.113307567061316 0  35.34314381587366 7.870210786685855 0  34.07574473538949 8.110036056779427 0  24.89305666923218 4.196401119595952 0  26.79555833891216 4.347361624660264 0  35.34199974897024 8.359305625448254 0  23.47430632539821 4.011675428364561 0  35.76660838872904 8.115496685195378 0  31.99915658316627 4.001784771268317 0  30.84314160004314 0.4279277867940294 0  21.96596027998896 3.827467421191249 0  24.36334987109497 0.4009809505254722 0  17.07609148361941 6.733963371743834 0  35.76448586579359 8.603697270755818 0  20.51078948540085 3.753600125522376 0  22.91122332075498 0.4219421981702736 0  31.82994762863893 12.08762871105922 0  36.18955141307372 8.358686070365701 0  36.19170275638712 7.8702681477409 0  16.44035423254719 0.4277133338498285 0  19.45774373547735 0.4286774885813633 0  33.65540705509201 7.86605
[...]
<PointData  Vectors="u"> 
<DataArray  type="Float64"  Name="u"  NumberOfComponents="3" format="ascii">6.0201924622633174e-01 7.9351630902295216e-04 0.0000000000000000e+00  3.5001565261873391e-01 -4.5069762986513778e-01 0.0000000000000000e+00  4.3065084038649601e-02 -4.2934778194413287e-01 0.0000000000000000e+00  -1.4942738395633157e-01 -3.0055705959893941e-01 0.0000000000000000e+00  7.0600745435389599e-03 -4.1395010824673295e-01 0.0000000000000000e+00  -1.4938240746428549e-01 5.8400664440001582e-02 0.0000000000000000e+00  1.5957357038171793e-01 9.6079142279490576e-02 0.0000000000000000e+00  5.7165459048603184e-01 8.3040958727573624e-02 0.0000000000000000e+00  5.5450324990723887e-01 3.8221886719702676e-02 0.0000000000000000e+00  2.8765068181255887e-01 2.2940662140308751e-01 0.0000000000000000e+00  6.0332345800378107e-01 0.0000000000000000e+00 0.0000000000000000e+00  7.0622612506268712e-01 0.0000000000000000e+00 0.0000000000000000e+00  5.9708678339842158e-01 6.0139715947091880e-03 0.0000000000000000e+00  5.9217179420389443e-01 1.1153215697134415e-02 0.0000000000000000e+00  5.8721373245110520e-01 1.6146615680431239e-02 0.0000000000000000e+00  5.8215290146411169e-01 2.0969398395882570e-02 0.0000000000000000e+00  5.7693684479347995e-01 2.5638418136552810e-02 0.0000000000000000e+00  5.7149741725735925e-01 3.0182142748798609e-02 0.0000000000000000e+00  5.6581453020212236e-01 3.4667340738381555e-02 0.0000000000000000e+00  5.5983296594380927e-01 3.9130402644719738e-02 0.0000000000000000e+00  5.5354650453704601e-01 4.3639864450104246e-02 0.0000000000000000e+00  5.4693597907567393e-01 4.8287006651616678e-02 0.0000000000000000e+00  5.3995794227617666e-01 5.3113937558817173e-02 0.0000000000000000e+00  5.3265723241503238e-01 5.8265174170084810e-02 0.0000000000000000e+00  5.2503465751517753e-01 6.3775434308603690e-02 0.0000000000000000e+00  5.1712485577727196e-01 6.9706999905093964e-02 0.0000000000000000e+00  5.0898799399644168e-01 7.6151518855077455e-02 0.0000000000000000e+00  5.0058617571109665e-01 8.3113334788242468e-02 0.0000000000000000e+00  4.9217342026972921e-01 9.0708638526517366e-02 0.0000000000000000e+00  4.8370790277666653e-01 9.8900038086895931e-02 0.0000000000000000e+00  4.7532317251197487e-01 1.0764894735337446e-01 0.0000000000000000e+00  4.6710726239203115e-01 1.1689066153243739e-01 0.0000000000000000e+00  4.5913769836263635e-01 1.2652549517602610e-01 0.0000000000000000e+00  4.5147266710570372e-01 1.3643615230894265e-01 0.0000000000000000e+00  4.4415470449445399e-01 1.4649389427674858e-01 0.0000000000000000e+00  4.3720443505033785e-01 1.5657121601912635e-01 0.0000000000000000e+00  4.3063624528115790e-01 1.6654138187701062e-01 0.0000000000000000e+00  4.2445874602447170e-01 1.7628159253226963e-01 0.0000000000000000e+00  4.1866969858121467e-01 1.8566437364495930e-01 0.0000000000000000e+00  4.1327920862448270e-01 1.9460254628496740e-01 0.0000000000000000e+00  4.0832218876463933e-01 2.0300365342547014e-01 0.0000000000000000e+00  4.0378198522253939e-01 2.1067322553390802e-01 0.0000000000000000e+00  3.9962600155208339e-01 2.1755653530346933e-01 0.0000000000000000e+00  3.9599018083433057e-01 2.2353247307932450e-01 0.0000000000000000e+00  3.9283707282378377e-01 2.2838685268114384e-01 0.0000000000000000e+00  3.9020239688007891e-01 2.3212036994371638e-01 0.0000000000000000e+00  3.8806274869317781e-01 2.3444291114405191e-01 0.0000000000000000e+00  3.8645159867273315e-01 2.3521508310714706e-01 0.0000000000000000e+00  3.8549300314077212e-01 2.3423505301951772e-01 0.0000000000000000e+00  3.8523844079068698e-01 2.3125849288703418e-01 0.0000000000000000e+00  3.8567752274846956e-01 2.2603513125863711e-01 0.0000000000000000e+00  3.8661169229003139e-01 2.1836258614840295e-01 0.0000000000000000e+00  3.8836264042464103e-01 2.0793055803026306e-01 0.0000000000000000e+00  3.9053061138621209e-01 1.9423972843654758e-01 0.0000000000000000e+00  3.9298417709975625e-01 1.7735145949205361e-01 0.0000000000000000e+00  3.9537751019481376e-01 1.5682646233158606e-01 0.0000000000000000e+00  3.9719398849885301e-01 1.3294877848262013e-01 0.0000000000000000e+00  3.9838220751139036e-01 1.0586532953624297e-01 0.0000000000000000e+00  3.9791253032179080e-01 7.6714418211688992e-02 0.0000000000000000e+00  3.9606013145549590e-01 4.6145270113771231e-02 0.0000000000000000e+00  3.9306473723864122e-01 1.4897349304442227e-02 0.0000000000000000e+00  3.8905118846347658e-01 -1.6023764741708076e-02 0.0000000000000000e+00  3.8441691547861806e-01 -4.6523944615442889e-02 0.0000000000000000e+00  3.7952512132453664e-01 -7.6196626215511321e-02 0.0000000000000000e+00  3.7464800368223167e-01 -1.0503846936572109e-01 0.0000000000000000e+00  3.6997579013569526e-01 -1.3307336717867010e-01 0.0000000000000000e+00  3.6566429340219064e-01 -1.6039209186002504e-01 0.0000000000000000e+00  3.6183192593344571e-01 -1.8713426677768918e-01 0.0000000000000000e+00  3.5847629802020964e-01 -2.1340126936543960e-01 0.0000000000000000e+00  3.5565599505484752e-01 -2.3930989555744636e-01 0.0000000000000000e+00  3.5344848061907214e-01 -2.6504641424543224e-01 0.0000000000000000e+00  3.5178766160245012e-01 -2.9076162305021064e-01 0.0000000000000000e+00  3.5068578573071418e-01 -3.1656995778659008e-01 0.0000000000000000e+00  3.5010422266763186e-01 -3.4263029540037016e-01 0.0000000000000000e+00  3.4987946079086041e-01 -3.6914168598982061e-01 0.0000000000000000e+00  3.4988023705441118e-01 -3.9605789932949975e-01 0.0000000000000000e+00  3.4996583386929830e-01 -4.2328381727978831e-01 0.0000000000000000e+00  3.2295545286331556e-01 -4.5074579656467884e-01 0.0000000000000000e+00  2.9571582681988645e-01 -4.5082744796630303e-01 0.0000000000000000e+00  2.6803680777859595e-01 -4.5088557374793586e-01 0.0000000000000000e+00  2.3999377146468140e-01 -4.5071253619169732e-01 0.0000000000000000e+00  2.1125573022906055e-01 -4.5025471459738076e-01 0.0000000000000000e+00  1.8201700582989561e-01 -4.4925683578682629e-01 0.0000000000000000e+00  1.5188490099309437e-01 -4.4756452685061859e-01 0.0000000000000000e+00  1.2068428079769172e-01 -4.4471489479141652e-01 0.0000000000000000e+00  8.7169724823997263e-02 -4.3994306999362592e-01 0.0000000000000000e+00  1.9819520236674923e-02 -4.2353015416445111e-01 0.0000000000000000e+00  2.9652000546827994e-03 -4.2029057840618123e-01 0.0000000000000000e+00  -1.7148985627562549e-02 -4.1381765032109274e-01 0.0000000000000000e+00  -4.6066559961835632e-02 -3.9929950647732881e-01 0.0000000000000000e+00  -8.9952477848202123e-02 -3.6582183964415360e-01 0.0000000000000000e+00  -7.1495241776595650e-02 -3.2002864695659772e-01 0.0000000000000000e+00  -2.5405445432432918e-02 -3.4382067357804569e-01 0.0000000000000000e+00  -6.3317724881192743e-06 -3.6407552515759289e-01 0.0000000000000000e+00  1.3198072278476747e-02 -3.8155688299830709e-01 0.0000000000000000e+00  1.8980564629139079e-02 -3.9455280557257061e-01 0.0000000000000000e+00  1.8269715662467170e-02 -4.0469363076898651e-01 0.0000000000000000e+00  1.4410003655344719e-02 -4.1092396006391457e-01 0.0000000000000000e+00  9.9488441490524493e-03 -4.1365705064816533e-01 0.0000000000000000e+00  6.5465597540677999e-03 -4.1303654116957272e-01 0.0000000000000000e+00  3.7255446958748390e-03 -4.1384618976930782e-01 0.0000000000000000e+00  -2.4462235065588057e-03 -4.1426356124966407e-01 0.0000000000000000e+00  -1.1786505971522173e-02 -4.1156408152497204e-01 0.0000000000000000e+00  -2.2569817288594869e-02 -4.0448741988441439e-01 0.0000000000000000e+00  -3.4378363163858984e-02 -3.9313623263015901e-01 0.0000000000000000e+00  -4.6051662058422760e-02 -3.7776342632381887e-01 0.0000000000000000e+00  -5.7035279828092214e-02 -3.5917211566384216e-01 0.0000000000000000e+00  -6.7152189317657568e-02 -3.3820822640630432e-01 0.0000000000000000e+00  -7.6560071531490859e-02 -3.1559645822270777e-01 0.0000000000000000e+00  -8.5349617875654024e-02 -2.9175862609870279e-01 0.0000000000000000e+00  -9.3595536163725679e-02 -2.6699531145180899e-01 0.0000000000000000e+00  -1.0138006445293066e-01 -2.4154472695381490e-01 0.0000000000000000e+00  -1.0876533300195042e-01 -2.1552288635427896e-01 0.0000000000000000e+00  -1.1577111480688490e-01 -1.8904061635990649e-01 0.0000000000000000e+00  -1.2236286091718553e-01 -1.6226498801135672e-01 0.0000000000000000e+00  -1.2848161494034122e-01 -1.3525762761937865e-01 0.0000000000000000e+00  -1.3402260509357738e-01 -1.0819468675289128e-01 0.0000000000000000e+00  -1.3886653211570654e-01 -8.1413178618891704e-02 0.0000000000000000e+00  -1.4282638260101824e-01 -5.4966803215699876e-02 0.0000000000000000e+00  -1.4582349661458802e-01 -2.9594206507322276e-02 0.0000000000000000e+00  -1.4797209838843264e-01 -5.8940866368678265e-03 0.0000000000000000e+00  -1.4902975901732590e-01 1.5220531640666271e-02 0.0000000000000000e+00  -1.4930332927178033e-01 3.2783924989653893e-02 0.0000000000000000e+00  -1.4952128223029879e-01 4.6589487343724437e-02 0.0000000000000000e+00  -1.3663590281375695e-01 6.4151678727954506e-02 0.0000000000000000e+00  -1.1956601122190048e-01 6.9824091772650365e-02 0.0000000000000000e+00  -9.9768913390622105e-02 7.4459819454611761e-02 0.0000000000000000e+00  -7.8782406551589898e-02 7.8130615975971679e-02 0.0000000000000000e+00  -5.7096186520774396e-02 8.1033894661775810e-02 0.0000000000000000e+00  -3.5026203882643672e-02 8.3492007637951171e-02 0.0000000000000000e+00  -1.2623080681028961e-02 8.5824029000039159e-02 0.0000000000000000e+00  1.0276701583344988e-02 8.8329394263132036e-02 0.0000000000000000e+00  3.3767115685297007e-02 9.1299040808292223e-02 0.0000000000000000e+00  5.9051775756433708e-02 9.4806447467090965e-02 0.0000000000000000e+00  8.7111898111592978e-02 1.0073143014349921e-01 0.0000000000000000e+00  2.0028296947708152e-01 1.1919629734082647e-01 0.0000000000000000e+00  2.2922043225766339e-01 1.3868748167710956e-01 0.0000000000000000e+00  2.5298899495792476e-01 1.5514541164748649e-01 0.0000000000000000e+00  2.7395672432460527e-01 1.6886668947302694e-01 0.0000000000000000e+00  2.9352843128625011e-01 1.8030336099686253e-01 0.0000000000000000e+00  3.1234562179522080e-01 1.8923942915998826e-01 0.0000000000000000e+00  3.3061948015479825e-01 1.9591725112976630e-01 0.0000000000000000e+00  3.4779754596215456e-01 2.0077984174210717e-01 0.0000000000000000e+00  3.6460753834007492e-01 2.0337580631478377e-01 0.0000000000000000e+00  3.8063604791856537e-01 2.0438852423525544e-01 0.0000000000000000e+00  3.9616632407791058e-01 2.0369096624315525e-01 0.0000000000000000e+00  4.1113755866780849e-01 2.0146962696428403e-01 0.0000000000000000e+00  4.2545238346625153e-01 1.9800314626244891e-01 0.0000000000000000e+00  4.3939878448853026e-01 1.9320921817223585e-01 0.0000000000000000e+00  4.5261221261270995e-01 1.8756984257488360e-01 0.0000000000000000e+00  4.6538205245839637e-01 1.8089626719065324e-01 0.0000000000000000e+00  4.7761989755881729e-01 1.7351906674783368e-01 0.0000000000000000e+00  4.8937811588254559e-01 1.6545547954625453e-01 0.0000000000000000e+00  5.0064313839598384e-01 1.5683228021963050e-01 0.0000000000000000e+00  5.1147384428423903e-01 1.4775974436513503e-01 0.0000000000000000e+00  5.2187185633641942e-01 1.3831968840704387e-01 0.0000000000000000e+00  5.3199266116973865e-01 1.2847080449074239e-01 0.0000000000000000e+00  5.4181501596772763e-01 1.1838912629417653e-01 0.0000000000000000e+00  5.5149224898609384e-01 1.0791668473967687e-01 0.0000000000000000e+00  5.6121441189525556e-01 9.6820797232149688e-02 0.0000000000000000e+00  5.8793015672005289e-01 7.7613076462830749e-02 0.0000000000000000e+00  5.9792691737546988e-01 7.1126945408929956e-02 0.0000000000000000e+00  6.0467311378384370e-01 6.4356047577685135e-02 0.0000000000000000e+00  6.0878208419749757e-01 5.7575513985022385e-02 0.0000000000000000e+00  6.1030296668623440e-01 5.0821106375179871e-02 0.0000000000000000e+00  6.0887813360495591e-01 4.4330069017127813e-02 0.0000000000000000e+00  6.0344567275631378e-01 3.8472270006959894e-02 0.0000000000000000e+00  5.9106685833216099e-01 3.4734372011088123e-02 0.0000000000000000e+00  4.8843186318638593e-01 7.2549162369880613e-02 0.0000000000000000e+00  4.4470212147397797e-01 9.5059079356302076e-02 0.0000000000000000e+00  4.0422268912853559e-01 1.2059258779173752e-01 0.0000000000000000e+00  3.6465033430091026e-01 1.4985397651965146e-01 0.0000000000000000e+00  3.2552050608449845e-01 1.8519916064220610e-01 0.0000000000000000e+00  3.4613654399496269e-01 2.2396650612216767e-01 0.0000000000000000e+00  4.0179100847429650e-01 2.1208043111047803e-01 0.0000000000000000e+00  4.5332197389904677e-01 1.9394032287695581e-01 0.0000000000000000e+00  4.9846501801483933e-01 1.6988225193290729e-01 0.0000000000000000e+00  5.3476515565787253e-01 1.4282372991936321e-01 0.0000000000000000e+00  5.6230958611771187e-01 1.1315924184637749e-01 0.0000000000000000e+00  5.8164853396472682e-01 8.4256102843891664e-02 0.0000000000000000e+00  5.9427020999677327e-01 5.5064303009597471e-02 0.0000000000000000e+00  6.0114615015065842e-01 2.7287375763320132e-02 0.0000000000000000e+00  6.1299659202904100e-01 0.0000000000000000e+00 0.0000000000000000e+00  6.2100843543606976e-01 0.0000000000000000e+00 0.0000000000000000e+00  6.2667883136851454e-01 0.0000000000000000e+00 0.0000000000000000e+00  6.3015108037948209e-01 0.0000000000000000e+00 0.0000000000000000e+00  6.3245048821463468e-01 0.0000000000000000e+00 0.0000000000000000e+00  6.3409873057418553e-01 0.0000000000000000e+00 0.0000000000000000e+00  6.3582846270333226e-01 0.0000000000000000e+00 0.0000000000000000e+00  6.3800081753224502e-01 0.0000000000000000e+00 0.0000000000000000e+00  6.4078398514459645e-01 0.0000000000000000e+00 0.0000000000000000e+00  6.4408294278150124e-01 0.0000000000000000e+00 0.0000000000000000e+00  6.4782705251923367e-01 0.0000000000000000e+00 0.0000000000000000e+00  6.5188789259433277e-01 0.0000000000000000e+00 0.0000000000000000e+00  6.5614948962235642e-01 0.0000000000000000e+00 0.0000000000000000e+00  6.6052556339272550e-01 0.0000000000000000e+00 0.0000000000000000e+00  6.6493110834990343e-01 0.0000000000000000e+00 0.0000000000000000e+00  6.6934862231231151e-01 0.0000000000000000e+00 0.0000000000000000e+00  6.7374712722382368e-01 0.0000000000000000e+00 0.0000000000000000e+00  6.7809970939511488e-01 0.0000000000000000e+00 0.0000000000000000e+00  6.8241689350993828e-01 0.0000000000000000e+00 0.0000000000000000e+00  6.8662812737945478e-01 0.0000000000000000e+00 0.0000000000000000e+00  6.9076805493916660e-01 0.0000000000000000e+00 0.0000000000000000e+00  6.9480813465126057e-01 0.0000000000000000e+00 0.0000000000000000e+00  6.9873298209475143e-01 0.0000000000000000e+00 0.0000000000000000e+00  7.0254527888148111e-01 0.0000000000000000e+00 0.0000000000000000e+00  7.0596047751035429e-01 -1.5101386843993834e-03 0.0000000000000000e+00  7.0530992831002848e-01 -2.9974044680859185e-03 0.0000000000000000e+00  7.0418918687578047e-01 -4.4531440427306307e-03 0.0000000000000000e+00  7.0262931573744603e-01 -5.8671404502145807e-03 0.0000000000000000e+00  7.0062808205432825e-01 -7.2358421417055120e-03 0.0000000000000000e+00  6.9819438689612179e-01 -8.5302018698658697e-03 0.0000000000000000e+00  6.9533499111762498e-01 -9.7365952379717888e-03 0.0000000000000000e+00  6.9205898658921172e-01 -1.0839978052918539e-02 0.0000000000000000e+00  6.8837778778232372e-01 -1.1819955377831105e-02 0.0000000000000000e+00  6.8430724607297244e-01 -1.2656093898490144e-02 0.0000000000000000e+00  6.7986781998346846e-01 -1.3325992132598668e-02 0.0000000000000000e+00  6.7508504330375041e-01 -1.3807205479089929e-02 0.0000000000000000e+00  6.6999101927179516e-01 -1.4076861154942933e-02 0.0000000000000000e+00  6.6462362642955763e-01 -1.4114217622585225e-02 0.0000000000000000e+00  6.5902889490910277e-01 -1.3900440548160677e-02 0.0000000000000000e+00  6.5325939443810022e-01 -1.3422440164345236e-02 0.0000000000000000e+00  6.4736507071005533e-01 -1.2675306321584737e-02 0.0000000000000000e+00  6.4140960806946823e-01 -1.1656542180140145e-02 0.0000000000000000e+00  6.3545717830057102e-01 -1.0376907581375472e-02 0.0000000000000000e+00  6.2955265092747748e-01 -8.8557302424828194e-03 0.0000000000000000e+00  6.2376350030354810e-01 -7.1286619742430583e-03 0.0000000000000000e+00  6.1811790585420301e-01 -5.2412279544293222e-03 0.0000000000000000e+00  6.1263422292904668e-01 -3.2527646588254586e-03 0.0000000000000000e+00  6.0728889280321985e-01 -1.2246856900855559e-03 0.0000000000000000e+00  6.1189861796948031e-01 5.2524397756935494e-02 0.0000000000000000e+00  6.5811400350827465e-01 -9.4271470418579428e-03 0.0000000000000000e+00  5.4768052379288679e-01 4.8475554087731437e-02 0.0000000000000000e+00  6.7868044927345239e-01 -9.3289039799122966e-03 0.0000000000000000e+00  5.8328511349720191e-01 7.0275389098406235e-02 0.0000000000000000e+00  6.6287378029586874e-01 1.7110409612937235e-03 0.0000000000000000e+00  1.0994492427787478e-01 6.6259195673762220e-02 0.0000000000000000e+00  -8.9258762463489544e-02 -1.9981811072184019e-01 0.0000000000000000e+00  3.3436367880695095e-01 -2.2733737471069454e-01 0.0000000000000000e+00  1.0326502383925608e-01 -4.1715962003910845e-01 0.0000000000000000e+00  3.4927784688818370e-01 -1.2031754722593706e-01 0.0000000000000000e+00  5.8228977203105126e-01 4.0392385400210742e-02 0.0000000000000000e+00  5.1908296017289368e-01 7.0071703634093888e-02 0.0000000000000000e+00  6.3513827865631933e-01 -6.6220034810831035e-03 0.0000000000000000e+00  6.9354092127875722e-01 -6.7529114813187048e-03 0.0000000000000000e+00  -1.1342131245489527e-01 -8.9349422559048583e-02 0.0000000000000000e+00  -5.9863810917229865e-02 -3.0197605804418237e-01 0.0000000000000000e+00  5.6892507302386008e-01 7.4769343172557068e-02 0.0000000000000000e+00  5.8008096721355273e-01 6.5065000856555588e-02 0.0000000000000000e+00  6.7945968709415228e-01 8.0121891074147521e-04 0.0000000000000000e+00  5.7301966209096844e-01 3.0344390357093010e-02 0.0000000000000000e+00  6.4941964689557807e-01 2.0500880093449522e-03 0.0000000000000000e+00  3.2834440545473614e-01 -3.0403748014791776e-01 0.0000000000000000e+00  2.1362957280785452e-02 6.9088554689329132e-02 0.0000000000000000e+00  5.6779471951526828e-01 6.9291478690489502e-02 0.0000000000000000e+00  5.7855578816893760e-01 6.0877039835707664e-02 0.0000000000000000e+00  4.6357763242694733e-01 1.2879203146742291e-01 0.0000000000000000e+00  3.5985214771036239e-01 -3.3097588994313532e-02 0.0000000000000000e+00  5.6732221297439911e-01 6.4868437423472647e-02 0.0000000000000000e+00  5.7762318949823654e-01 5.7326690630467914e-02 0.0000000000000000e+00  4.4215211417718181e-01 1.5927884974380582e-01 0.0000000000000000e+00  4.2294401018066174e-01 1.8834898241359993e-01 0.0000000000000000e+00  5.2737694817946390e-01 1.2493016677212584e-01 0.0000000000000000e+00  5.5635733785300379e-01 7.3806146165045550e-02 0.0000000000000000e+00  1.9935938930808328e-01 -4.2625402978925625e-01 0.0000000000000000e+00  5.6725519451522222e-01 6.0993014020114839e-02 0.0000000000000000e+00  5.7693283055496236e-01 5.4236451500008068e-02 0.0000000000000000e+00  5.8663532449825251e-01 5.1150200191633285e-02 0.0000000000000000e+00  5.8556872606705668e-01 4.8513722488509416e-02 0.0000000000000000e+00  5.9469438959735277e-01 4.5870272978211592e-02 0.0000000000000000e+00  5.9373964257633249e-01 4.3385526248904668e-02 0.0000000000000000e+00  6.0195416763610798e-01 4.1214793726864804e-02 0.0000000000000000e+00  6.0148029065732123e-01 3.8776495508609850e-02 0.0000000000000000e+00  6.0877793813065173e-01 3.6933955648715995e-02 0.0000000000000000e+00  6.0841756187840734e-01 3.4649007631573539e-02 0.0000000000000000e+00  6.1518266588859249e-01 3.2947682255725599e-02 0.0000000000000000e+00  6.1516228710135334e-01 3.0721912713758372e-02 0.0000000000000000e+00  6.2140753829822060e-01 2.9157621965339706e-02 0.0000000000000000e+00  6.2178912635901684e-01 2.6954901575085614e-02 0.0000000000000000e+00  6.2751864428727444e-01 2.5526468666532843e-02 0.0000000000000000e+00  6.1512708419384932e-01 2.8566188677147594e-02 0.0000000000000000e+00  6.2682405068859925e-01 2.7666802822664458e-02 0.0000000000000000e+00  6.32583896416597