<?xml version="1.0"?>
<VTKFile type="UnstructuredGrid"  version="0.1"  >
<UnstructuredGrid>
<Piece  NumberOfPoints="1240" NumberOfCells="2339">
<Points>
<DataArray  type="Float64"  NumberOfComponents="3"  format="ascii">40 0 0  20 0 0  20 10.7448900615195 0  23.22649046231116 8.079656826720603 0  23.22649046231116 12.5 0  40 12.5 0  39.5 0 0  39 0 0  38.5 0 0  38 0 0  37.5 0 0  37 0 0  36.5 0 0  36 0 0  35.5 0 0  35 0 0  34.5 0 0  34 0 0  33.5 0 0  33 0 0  32.5 0 0  32 0 0  31.5 0 0  31 0 0  30.5 0 0  30 0 0  29.5 0 0  29 0 0  28.5 0 0  28 0 0  27.5 0 0  27 0 0  26.5 0 0  26 0 0  25.5 0 0  25 0 0  24.5 0 0  24 0 0  23.5 0 0  23 0 0  22.5 0 0  22 0 0  21.5 0 0  21 0 0  20.5 0 0  20 0.4884040937054319 0  20 0.9768081874108637 0  20 1.465212281116296 0  20 1.953616374821727 0  20 2.442020468527159 0  20 2.930424562232591 0  20 3.418828655938023 0  20 3.907232749643455 0  20 4.395636843348886 0  20 4.884040937054318 0  20 5.37244503075975 0  20 5.860849124465182 0  20 6.349253218170614 0  20 6.837657311876046 0  20 7.326061405581478 0  20 7.81446549928691 0  20 8.302869592992341 0  20 8.791273686697773 0  20 9.279677780403205 0  20 9.768081874108637 0  20 10.25648596781407 0  20.35849894025679 10.44875303543073 0  20.71699788051359 10.15261600934197 0  21.07549682077039 9.856478983253201 0  21.43399576102718 9.560341957164434 0  21.79249470128398 9.264204931075668 0  22.15099364154077 8.968067904986903 0  22.50949258179757 8.671930878898136 0  22.86799152205436 8.37579385280937 0  23.22649046231116 8.570806068196092 0  23.22649046231116 9.06195530967158 0  23.22649046231116 9.553104551147069 0  23.22649046231116 10.04425379262256 0  23.22649046231116 10.53540303409805 0  23.22649046231116 11.02655227557353 0  23.22649046231116 11.51770151704902 0  23.22649046231116 12.00885075852451 0  23.71982897812554 12.5 0  24.21316749393991 12.5 0  24.70650600975429 12.5 0  25.19984452556867 12.5 0  25.69318304138305 12.5 0  26.18652155719742 12.5 0  26.6798600730118 12.5 0  27.17319858882618 12.5 0  27.66653710464056 12.5 0  28.15987562045493 12.5 0  28.65321413626931 12.5 0  29.14655265208369 12.5 0  29.63989116789807 12.5 0  30.13322968371245 12.5 0  30.62656819952682 12.5 0  31.1199067153412 12.5 0  31.61324523115558 12.5 0  32.10658374696996 12.5 0  32.59992226278433 12.5 0  33.09326077859871 12.5 0  33.58659929441309 12.5 0  34.07993781022747 12.5 0  34.57327632604185 12.5 0  35.06661484185622 12.5 0  35.5599533576706 12.5 0  36.05329187348498 12.5 0  36.54663038929935 12.5 0  37.03996890511374 12.5 0  37.53330742092811 12.5 0  38.02664593674249 12.5 0  38.51998445255687 12.5 0  39.01332296837124 12.5 0  39.50666148418563 12.5 0  40 12 0  40 11.5 0  40 11 0  40 10.5 0  40 10 0  40 9.5 0  40 9 0  40 8.5 0  40 8 0  40 7.5 0  40 7 0  40 6.5 0  40 6 0  40 5.5 0  40 5 0  40 4.5 0  40 4 0  40 3.5 0  40 3 0  40 2.5 0  40 2 0  40 1.5 0  40 1 0  40 0.5 0  33.31621668450353 12.03263185364764 0  30.81029361736083 12.06138422598256 0  29.24562569026402 0.4117099386674896 0  32.24998452154099 0.4223773918321498 0  39.55352700492918 6.2634546165466 0  28.40654487836212 12.07275631263944 0  34.6945533597976 0.4763958897065388 0  26.82141703769478 0.4819236188405043 0  35.29363126147938 12.0944040282845 0  24.77502523112381 0.418370291969544 0  23.63795413069012 8.325384538042542 0  23.62481861168972 7.829077006119977 0  24.04328275203259 8.086779820662922 0  24.02871328956519 7.591666652353952 0  24.44540161514801 7.849776253497112 0  24.44603090503834 7.371378114223948 0  24.8540018113313 7.623955839144833 0  39.55359767127783 4.295429202230261 0  24.85715091022663 7.137803933351969 0  25.26734724361938 7.391689474245119 0  39.57554568050918 8.278010864359391 0  25.27324550844314 6.906287683547934 0  25.69199754548728 7.154601575717811 0  25.68911397576008 6.66780932222028 0  26.10980638114111 6.9159826267316 0  25.27331039419369 6.427604215004226 0  26.10489933255437 6.426790407636917 0  26.52227304662262 6.667632396166457 0  26.52162511381842 6.183106956046972 0  26.94023489082457 6.424775175007974 0  20.49849227236351 3.699848084994489 0  26.9406096650278 5.940363946958857 0  27.3607696276593 6.182544261512144 0  27.35477839354989 6.673722735093344 0  27.77838386555106 6.430565214711991 0  27.78136644840002 5.940510241584473 0  28.20264448121338 6.183527433079503 0  28.19991512327261 6.674547572877836 0  28.62454221825755 6.42739738185174 0  28.62499604412263 5.938840394611299 0  29.04790061842689 6.182918752462272 0  29.04791754530304 5.694016980454172 0  29.47152400575354 5.938955846404639 0  29.47112979424568 6.427952347204526 0  29.89532143062248 6.184019200451182 0  29.89481583605956 6.673606330396517 0  30.31949248263309 6.429198424663435 0  30.3197461402821 5.939763266165905 0  30.74417189302633 6.185642741251611 0  30.74384014829691 6.674916755529472 0  31.16926649513452 6.429812432533284 0  31.17151828057308 5.942793264957753 0  31.59625910651357 6.187156069149157 0  31.59388820533378 6.674324003858943 0  32.02113881845698 6.430754245891162 0  32.02492557558864 5.944220325090511 0  32.44945568079392 6.188648730861841 0  32.44721676676818 6.67712247868241 0  32.87562510726197 6.43373347810305 0  32.88322650842173 5.94688452868236 0  33.30503737218203 6.189706862695318 0  33.30297524956896 6.682030522108922 0  33.73001717707933 6.438252195679944 0  33.74210028628178 5.954147560693113 0  36.77364164963954 0.412867259964262 0  33.72990776415995 6.930264321681975 0  34.15856947250832 6.683547257673749 0  25.67756157184301 7.660245496686018 0  34.15755547652714 7.177945793381181 0  34.58501950531589 6.934090614890404 0  26.52014147223175 5.698124660916212 0  23.25196328363335 0.4184662849215179 0  33.73001763134568 7.422544959094266 0  20.44427049804399 5.075758305153865 0  39.6213233455538 9.770054296758335 0  30.77577414510079 0.4127607404762186 0  36.74395386172848 12.08367996221256 0  34.58519727206102 7.426789418690454 0  23.97418472536954 7.094278431199609 0  26.94731859423973 12.08266210579666 0  35.01426650061846 7.180328326978762 0  35.02169226341128 6.69424417708005 0  35.01342499955057 7.675006409839011 0  39.57303118083368 2.739531882448939 0  35.44276141144103 7.428220517640801 0  35.44172461176365 7.923438318755842 0  35.01234727910906 8.169991068312438 0  25.44651378347586 12.07275631263944 0  35.44049745103568 8.418558749411577 0  23.6489108060879 9.803414641269963 0  35.01119035460127 8.665044788614214 0  20.43792508016107 2.218156400481401 0  35.8714202475316 7.67675423352839 0  20.39423713030618 6.598822601631628 0  35.43922528963783 8.913556482428344 0  35.01009290365428 9.159957548524133 0  35.43798600891137 9.408482960119812 0  35.86711696554863 9.16211908958072 0  22.76261365708093 7.894234472293332 0  38.27331519464968 12.07275631263944 0  38.24996989021809 0.4229822537869135 0  35.0088628774261 9.654694842362407 0  34.58116947940984 9.40634248513876 0  35.86594120732926 9.657099017603851 0  36.2953584420865 9.410634211209468 0  21.77753360757839 0.4840321432167167 0  24.44194768938137 8.33846379565138 0  34.5799364772261 9.900786629695627 0  34.15245683329223 9.652655584579858 0  36.29403871187662 9.905789014614911 0  36.72372670807616 9.659270149653231 0  36.72505858186465 9.16365004579885 0  37.15421730526291 9.412754352951964 0  37.1553352177252 8.916212942940465 0  37.15322543969435 9.909828661128145 0  20.42100000698539 8.060118204862981 0  23.65183818247839 10.78097765483579 0  29.35704360277839 12.06874637091621 0  27.75787904612891 0.4624066246729468 0  25.75 0.4330127018922196 0  39.58819984957063 10.75001113135202 0  39.56240944096479 7.189077495716813 0  39.55811692795483 5.178658324367036 0  33.21900858499845 0.4607831496728396 0  35.74372091221516 0.4246718947748995 0  39.56320603932839 1.680385847394819 0  32.33299602304259 12.08142547133488 0  34.32660706813466 12.07275631263944 0  29.47259851496267 5.449871839193193 0  29.0475888375578 5.204311528230322 0  29.4731979438675 4.959479716802301 0  29.04701267214453 4.713729185405635 0  29.47262056190951 4.467882474272176 0  29.04619738342141 4.221948373123466 0  29.47265346157625 3.975702184931992 0  29.04568733918278 3.73015856968301 0  29.47333394671943 3.484886615583131 0  29.9000891221132 3.729800928292572 0  28.6193929185561 3.976169830696152 0  28.61853446284188 3.484673164750155 0  28.19384712710888 3.730481171151211 0  28.19218152488939 3.238230812132392 0  27.76928484198069 3.485608611596645 0  29.90127017387507 3.237460480369838 0  30.32889576023567 3.483699172152942 0  27.76604006674146 2.992092105264788 0  27.34156695189427 3.239767172409444 0  30.3296785342328 2.99008823741527 0  30.75790608186811 3.236726004243557 0  28.19426711748827 2.745865609836164 0  30.75861081102649 2.742794752993728 0  31.18678290581318 2.989241822953427 0  31.18766877968433 3.485391295932376 0  31.61661007856424 3.237528480372402 0  27.33942054375974 2.746032551146825 0  26.912569795375 2.992909481080647 0  29.90604639317581 2.746862036069354 0  31.61539752293447 2.741185777168074 0  32.04576885190679 2.989521171231115 0  32.04512661156584 3.485504445444677 0  32.47535135094517 3.238138585129307 0  32.47553190504919 2.741644117462528 0  32.90568737854763 2.990587859076344 0  32.90480337731738 3.487188790762016 0  33.33548868460105 3.239855707630257 0  33.33645346973951 2.742886913471991 0  33.76629140503202 2.992382964654785 0  33.76521294160902 3.489286930267392 0  34.19607539848299 3.241932932738954 0  34.19472841651157 3.738843340662566 0  34.62583967304415 3.491390955750051 0  34.62408160381195 3.988567621149603 0  35.05568270882996 3.741102975722855 0  35.05698561423731 3.24374805091393 0  35.48708665682958 3.493507108062368 0  35.48567450892752 3.990927761028157 0  35.91727562958728 3.74337846899921 0  35.91581866262653 4.240866500499633 0  36.34751198284867 3.993391068320087 0  36.34612629719852 4.491112322602561 0  36.3490482083386 3.4956417555382 0  36.77979085888014 3.745862976199156 0  36.78116407126716 3.247581573192793 0  37.2120909998332
[...]
<PointData  Vectors="u"> 
<DataArray  type="Float64"  Name="u"  NumberOfComponents="3" format="ascii">2.4930091379400943e-01 2.0473985284782018e-02 0.0000000000000000e+00  2.7672101807246152e-01 -9.0954984595242816e-02 0.0000000000000000e+00  4.7119442599336800e-02 -1.5122469998540819e-01 0.0000000000000000e+00  1.7939472325585204e-01 -3.3585147940150210e-02 0.0000000000000000e+00  2.0448109495238068e-01 0.0000000000000000e+00 0.0000000000000000e+00  2.2276628732985468e-01 0.0000000000000000e+00 0.0000000000000000e+00  2.4879687832969921e-01 1.9337639494416709e-02 0.0000000000000000e+00  2.4828263846744950e-01 1.8215909833187809e-02 0.0000000000000000e+00  2.4777022231762980e-01 1.7133640912812935e-02 0.0000000000000000e+00  2.4727118529000486e-01 1.6104294382863295e-02 0.0000000000000000e+00  2.4680421692878080e-01 1.5131239872024032e-02 0.0000000000000000e+00  2.4638544170913906e-01 1.4211802427358838e-02 0.0000000000000000e+00  2.4602630972468228e-01 1.3348867580733151e-02 0.0000000000000000e+00  2.4574297160627226e-01 1.2523809984977107e-02 0.0000000000000000e+00  2.4554574391260203e-01 1.1732235901038323e-02 0.0000000000000000e+00  2.4544051545271442e-01 1.0954521321796343e-02 0.0000000000000000e+00  2.4544341688369389e-01 1.0173042985848204e-02 0.0000000000000000e+00  2.4555967952229377e-01 9.4083298516862320e-03 0.0000000000000000e+00  2.4578599970895687e-01 8.5874670151392819e-03 0.0000000000000000e+00  2.4614343375026770e-01 7.7223850583464145e-03 0.0000000000000000e+00  2.4662837456162776e-01 6.7969881255595752e-03 0.0000000000000000e+00  2.4725868755131011e-01 5.7910639469303856e-03 0.0000000000000000e+00  2.4802604758980046e-01 4.6638111007484065e-03 0.0000000000000000e+00  2.4894621043165926e-01 3.4067393767769900e-03 0.0000000000000000e+00  2.5001352554803868e-01 1.9971015299655084e-03 0.0000000000000000e+00  2.5121099052623125e-01 3.9340951916662169e-04 0.0000000000000000e+00  2.5259029123496507e-01 -1.4039973650416164e-03 0.0000000000000000e+00  2.5409539873682130e-01 -3.4552488724640573e-03 0.0000000000000000e+00  2.5570493578963011e-01 -5.7999507049169962e-03 0.0000000000000000e+00  2.5748322914906902e-01 -8.4068072541757192e-03 0.0000000000000000e+00  2.5931759742868093e-01 -1.1381926722893758e-02 0.0000000000000000e+00  2.6128175106264068e-01 -1.4692564579602971e-02 0.0000000000000000e+00  2.6323804050030247e-01 -1.8391420282981200e-02 0.0000000000000000e+00  2.6523610868222408e-01 -2.2477808621263442e-02 0.0000000000000000e+00  2.6720356443635035e-01 -2.6983252226022922e-02 0.0000000000000000e+00  2.6910043204976780e-01 -3.1874282163105970e-02 0.0000000000000000e+00  2.7087832974306347e-01 -3.7152332198764328e-02 0.0000000000000000e+00  2.7245522989823234e-01 -4.2748796478439328e-02 0.0000000000000000e+00  2.7385169571074147e-01 -4.8669420479022903e-02 0.0000000000000000e+00  2.7496285524730357e-01 -5.4788772317476843e-02 0.0000000000000000e+00  2.7578141708049581e-01 -6.0987066536223662e-02 0.0000000000000000e+00  2.7634261211164790e-01 -6.7274688117787626e-02 0.0000000000000000e+00  2.7665445878845518e-01 -7.3420710340197468e-02 0.0000000000000000e+00  2.7675509059195869e-01 -7.9453627397605156e-02 0.0000000000000000e+00  2.7674179668194021e-01 -8.5270506927545786e-02 0.0000000000000000e+00  2.7118758304053020e-01 -9.0934064047589400e-02 0.0000000000000000e+00  2.6576550639801422e-01 -9.0933291150554721e-02 0.0000000000000000e+00  2.6051867316923161e-01 -9.1026264992176351e-02 0.0000000000000000e+00  2.5544149787914888e-01 -9.1304371429524120e-02 0.0000000000000000e+00  2.5050009747087393e-01 -9.1852453038432508e-02 0.0000000000000000e+00  2.4564918223327858e-01 -9.2757135151453105e-02 0.0000000000000000e+00  2.4070536176764612e-01 -9.4046642763526936e-02 0.0000000000000000e+00  2.3562149260381046e-01 -9.5807866549054543e-02 0.0000000000000000e+00  2.3023080359639339e-01 -9.8127146914726571e-02 0.0000000000000000e+00  2.2443957384789509e-01 -1.0119191376956287e-01 0.0000000000000000e+00  2.1784676802615885e-01 -1.0474740807354702e-01 0.0000000000000000e+00  2.1032329845978723e-01 -1.0907687645777138e-01 0.0000000000000000e+00  2.0151530121707942e-01 -1.1407881325339403e-01 0.0000000000000000e+00  1.9111239802294430e-01 -1.1961196853300658e-01 0.0000000000000000e+00  1.7881760217588988e-01 -1.2535927838955574e-01 0.0000000000000000e+00  1.6462035521914542e-01 -1.3107572632297765e-01 0.0000000000000000e+00  1.4856512968408692e-01 -1.3637527715607253e-01 0.0000000000000000e+00  1.3090041365060154e-01 -1.4100048226530265e-01 0.0000000000000000e+00  1.1193536830246074e-01 -1.4481026779400960e-01 0.0000000000000000e+00  9.1586044401831518e-02 -1.4788648152228939e-01 0.0000000000000000e+00  7.0013212551069501e-02 -1.5011859025145791e-01 0.0000000000000000e+00  6.1429263294939272e-02 -1.3478310404851224e-01 0.0000000000000000e+00  7.5555203121777617e-02 -1.2026591027128984e-01 0.0000000000000000e+00  8.9333257413896180e-02 -1.0731320685524388e-01 0.0000000000000000e+00  1.0249931534536952e-01 -9.5405221233972451e-02 0.0000000000000000e+00  1.1545485288119142e-01 -8.4373960094294917e-02 0.0000000000000000e+00  1.2818729889690045e-01 -7.3832937473837540e-02 0.0000000000000000e+00  1.4116207094378327e-01 -6.3324158304402051e-02 0.0000000000000000e+00  1.5549297780149002e-01 -5.2111430719255197e-02 0.0000000000000000e+00  1.9210738153932935e-01 -2.4373286870375401e-02 0.0000000000000000e+00  1.9684555491604050e-01 -1.9231901444087547e-02 0.0000000000000000e+00  1.9971214200708198e-01 -1.5527063889485517e-02 0.0000000000000000e+00  2.0147572342078043e-01 -1.2458614858694308e-02 0.0000000000000000e+00  2.0268952670217039e-01 -9.7209852634732394e-03 0.0000000000000000e+00  2.0350550933759809e-01 -7.1615821322024075e-03 0.0000000000000000e+00  2.0404922655585001e-01 -4.7228854872855058e-03 0.0000000000000000e+00  2.0435759153509456e-01 -2.3339452977715744e-03 0.0000000000000000e+00  2.0348932648026821e-01 0.0000000000000000e+00 0.0000000000000000e+00  2.0250685666374896e-01 0.0000000000000000e+00 0.0000000000000000e+00  2.0159957457346145e-01 0.0000000000000000e+00 0.0000000000000000e+00  2.0082993339571203e-01 0.0000000000000000e+00 0.0000000000000000e+00  2.0027638562509512e-01 0.0000000000000000e+00 0.0000000000000000e+00  1.9993166719538658e-01 0.0000000000000000e+00 0.0000000000000000e+00  1.9982671996076959e-01 0.0000000000000000e+00 0.0000000000000000e+00  1.9994644438856465e-01 0.0000000000000000e+00 0.0000000000000000e+00  2.0025631675381114e-01 0.0000000000000000e+00 0.0000000000000000e+00  2.0074448999245112e-01 0.0000000000000000e+00 0.0000000000000000e+00  2.0137659402041500e-01 0.0000000000000000e+00 0.0000000000000000e+00  2.0212681428443763e-01 0.0000000000000000e+00 0.0000000000000000e+00  2.0295980214012235e-01 0.0000000000000000e+00 0.0000000000000000e+00  2.0386995333246577e-01 0.0000000000000000e+00 0.0000000000000000e+00  2.0482672424203940e-01 0.0000000000000000e+00 0.0000000000000000e+00  2.0581018564787792e-01 0.0000000000000000e+00 0.0000000000000000e+00  2.0681847996967473e-01 0.0000000000000000e+00 0.0000000000000000e+00  2.0783709924741078e-01 0.0000000000000000e+00 0.0000000000000000e+00  2.0885286882102269e-01 0.0000000000000000e+00 0.0000000000000000e+00  2.0985969773072707e-01 0.0000000000000000e+00 0.0000000000000000e+00  2.1085581187640068e-01 0.0000000000000000e+00 0.0000000000000000e+00  2.1183721252338344e-01 0.0000000000000000e+00 0.0000000000000000e+00  2.1280069129169848e-01 0.0000000000000000e+00 0.0000000000000000e+00  2.1374193548061068e-01 0.0000000000000000e+00 0.0000000000000000e+00  2.1466525727605121e-01 0.0000000000000000e+00 0.0000000000000000e+00  2.1557265911474191e-01 0.0000000000000000e+00 0.0000000000000000e+00  2.1646479184312142e-01 0.0000000000000000e+00 0.0000000000000000e+00  2.1734319728743057e-01 0.0000000000000000e+00 0.0000000000000000e+00  2.1821821800004576e-01 0.0000000000000000e+00 0.0000000000000000e+00  2.1909446477824474e-01 0.0000000000000000e+00 0.0000000000000000e+00  2.1997889602756560e-01 0.0000000000000000e+00 0.0000000000000000e+00  2.2088243403073154e-01 0.0000000000000000e+00 0.0000000000000000e+00  2.2180795054306784e-01 0.0000000000000000e+00 0.0000000000000000e+00  2.2285332599330759e-01 1.4727359308641427e-03 0.0000000000000000e+00  2.2306585931010808e-01 2.9326100794039183e-03 0.0000000000000000e+00  2.2342428276885967e-01 4.3712135997139769e-03 0.0000000000000000e+00  2.2391977788479842e-01 5.7864254242257166e-03 0.0000000000000000e+00  2.2454713371538995e-01 7.1643370266748843e-03 0.0000000000000000e+00  2.2530087154857104e-01 8.4991956365411177e-03 0.0000000000000000e+00  2.2618297784871216e-01 9.7881338710817615e-03 0.0000000000000000e+00  2.2717719493522925e-01 1.1009144981432344e-02 0.0000000000000000e+00  2.2826960280898723e-01 1.2160524813735477e-02 0.0000000000000000e+00  2.2944967124241739e-01 1.3235358386818115e-02 0.0000000000000000e+00  2.3070058820166398e-01 1.4229801312789730e-02 0.0000000000000000e+00  2.3204201056814924e-01 1.5153783392470081e-02 0.0000000000000000e+00  2.3341543143207902e-01 1.5982485585350831e-02 0.0000000000000000e+00  2.3483889630966837e-01 1.6728349065290641e-02 0.0000000000000000e+00  2.3627598489518170e-01 1.7378718789019920e-02 0.0000000000000000e+00  2.3773193134135781e-01 1.7946024827388354e-02 0.0000000000000000e+00  2.3916066076163961e-01 1.8433569110838429e-02 0.0000000000000000e+00  2.4059204055760797e-01 1.8834561317833905e-02 0.0000000000000000e+00  2.4197668874945319e-01 1.9181169312318065e-02 0.0000000000000000e+00  2.4330797493250311e-01 1.9467737900096024e-02 0.0000000000000000e+00  2.4460023015713039e-01 1.9702838790137522e-02 0.0000000000000000e+00  2.4583796453439938e-01 1.9906574163560686e-02 0.0000000000000000e+00  2.4702415285229853e-01 2.0090325829240415e-02 0.0000000000000000e+00  2.4816924437648605e-01 2.0278224445300801e-02 0.0000000000000000e+00  2.1038731617504880e-01 5.1013279004345552e-04 0.0000000000000000e+00  2.0524688983154274e-01 1.4013568640847395e-04 0.0000000000000000e+00  2.5152403839741966e-01 -1.9573260214828594e-03 0.0000000000000000e+00  2.4595468487998406e-01 6.5072569575952977e-03 0.0000000000000000e+00  2.3201812122720517e-01 1.4403151573367780e-02 0.0000000000000000e+00  2.0107434848853589e-01 -5.3442438126064613e-04 0.0000000000000000e+00  2.4457346542252847e-01 1.0482428600748640e-02 0.0000000000000000e+00  2.5839969780559019e-01 -1.5252635899473220e-02 0.0000000000000000e+00  2.1422554908577204e-01 5.9535802732303103e-04 0.0000000000000000e+00  2.6564713226042463e-01 -3.3641116774673512e-02 0.0000000000000000e+00  1.8682673315058027e-01 -2.7922801970206770e-02 0.0000000000000000e+00  1.8720267374666871e-01 -2.8893983441257185e-02 0.0000000000000000e+00  1.8998381066685713e-01 -2.4753207022581134e-02 0.0000000000000000e+00  1.9272079344908916e-01 -2.5515478420448462e-02 0.0000000000000000e+00  1.9367761822146740e-01 -2.1863992357034037e-02 0.0000000000000000e+00  1.9711472854050208e-01 -2.2467903017508825e-02 0.0000000000000000e+00  1.9719610008538546e-01 -1.9203440772182407e-02 0.0000000000000000e+00  2.3776358506108061e-01 1.6950595401339662e-02 0.0000000000000000e+00  2.0094985212676264e-01 -1.9763598435572467e-02 0.0000000000000000e+00  2.0053682639582740e-01 -1.6729626345140677e-02 0.0000000000000000e+00  2.2691048013482573e-01 1.0664161868329813e-02 0.0000000000000000e+00  2.0432579062894302e-01 -1.7228310624102027e-02 0.0000000000000000e+00  2.0368668622476949e-01 -1.4376852625172888e-02 0.0000000000000000e+00  2.0742487290887726e-01 -1.4868767163075371e-02 0.0000000000000000e+00  2.0659670453042042e-01 -1.2219970434079956e-02 0.0000000000000000e+00  2.0873947685462657e-01 -1.8034690385868586e-02 0.0000000000000000e+00  2.1028297133959903e-01 -1.2658641308273058e-02 0.0000000000000000e+00  2.0937013652154540e-01 -1.0232636353285600e-02 0.0000000000000000e+00  2.1295775660865232e-01 -1.0576815134828173e-02 0.0000000000000000e+00  2.1195325790416733e-01 -8.3343892701486007e-03 0.0000000000000000e+00  2.3847486405226206e-01 -8.9176807865129534e-02 0.0000000000000000e+00  2.1545569654441443e-01 -8.6062662916599891e-03 0.0000000000000000e+00  2.1439138134902636e-01 -6.5410071933127067e-03 0.0000000000000000e+00  2.1118787419921486e-01 -6.4374075198463327e-03 0.0000000000000000e+00  2.1354736016354484e-01 -4.7917148469206134e-03 0.0000000000000000e+00  2.1669865610737105e-01 -4.8600499182032400e-03 0.0000000000000000e+00  2.1582615579195788e-01 -3.2511043337436481e-03 0.0000000000000000e+00  2.1295102871788130e-01 -3.2828640724328925e-03 0.0000000000000000e+00  2.1514601729382002e-01 -1.8813080551351978e-03 0.0000000000000000e+00  2.1798481747999121e-01 -1.8211606623774533e-03 0.0000000000000000e+00  2.1724110289904638e-01 -5.8023215541255259e-04 0.0000000000000000e+00  2.2004724170916476e-01 -4.8940909696696376e-04 0.0000000000000000e+00  2.1925069862515301e-01 6.2887926849272311e-04 0.0000000000000000e+00  2.1664793475213209e-01 4.6636779269013508e-04 0.0000000000000000e+00  2.1860215160404206e-01 1.5651700828565409e-03 0.0000000000000000e+00  2.1618357374154529e-01 1.3435273808661079e-03 0.0000000000000000e+00  2.1808110698033190e-01 2.3436523294008147e-03 0.0000000000000000e+00  2.2048678713666514e-01 2.5845044066129985e-03 0.0000000000000000e+00  2.1991418683862113e-01 3.2726291231288634e-03 0.0000000000000000e+00  2.1766778601821260e-01 2.9834344171011233e-03 0.0000000000000000e+00  2.1945824019530619e-01 3.8351738229017692e-03 0.0000000000000000e+00  2.2168424270966400e-01 4.1392338832083918e-03 0.0000000000000000e+00  2.2118567357362112e-01 4.6309648882697811e-03 0.0000000000000000e+00  2.1909383260581236e-01 4.2855586399660299e-03 0.0000000000000000e+00  2.2078259709776948e-01 5.0232069209262924e-03 0.0000000000000000e+00  2.2285969369379036e-01 5.3777526538947382e-03 0.0000000000000000e+00  2.2241762550013164e-01 5.7194440212793001e-03 0.0000000000000000e+00  2.2045192645726422e-01 5.3279211644362487e-03 0.0000000000000000e+00  2.2205568440973691e-01 5.9858787789366990e-03 0.0000000000000000e+00  2.2400793223778812e-01 6.3860687203938669e-03 0.0000000000000000e+00  2.2361971629573954e-01 6.6199677739017561e-03 0.0000000000000000e+00  2.2175593746958025e-01 6.1849487584648847e-03 0.0000000000000000e+00  2.2328453485177732e-01 6.7967115905854490e-03 0.0000000000000000e+00  2.2511757983935540e-01 7.2364193379334633e-03 0.0000000000000000e+00  2.4544108674381424e-01 1.3696981953714523e-02 0.0000000000000000e+00  2.2152242094974181e-01 6.3281487911647782e-03 0.0000000000000000e+00  2.2303131881604349e-01 6.9331098293483485e-03 0.0000000000000000e+00  2.0056359013816777e-01 -1.4139146179021067e-02 0.0000000000000000e+00  2.2135218330268239e-01 6.4261958598885224e-03 0.0000000000000000e+00  2.2281609127201685e-01 7.0246473511193300e-03 0.0000000000000000e+00  2.1683382978245944e-01 -1.1048762847923650e-02 0.0000000000000000e+00  2.6955385938612453e-01 -5.1320377889718855e-02 0.0000000000000000e+00  2.1986160699355911e-01 5.8308131743997358e-03 0.0000000000000000e+00  2.2311246244414673e-01 -9.5919077195225841e-02 0.0000000000000000e+00  2.2416923126959554e-01 7.2536471979803580e-03 0.0000000000000000e+00  2.4811948369273928e-01 3.1179352139175500e-03 0.0000000000000000e+00  2.1687078330919907e-01 7.2981134533669004e-04 0.0000000000000000e+00  2.2123353828425504e-01 6.4848557045260923e-03 0.0000000000000000e+00  1.9867270139832083e-01 -2.7825764067533284e-02 0.0000000000000000e+00  1.9984756612867463e-01 -1.1511666483212950e-03 0.0000000000000000e+00  2.2267409339764688e-01 7.0926999239915942e-03 0.0000000000000000e+00  2.2425527797987241e-01 7.6375426297664376e-03 0.0000000000000000e+00  2.2116867046231636e-01 6.5135514511066236e-03 0.0000000000000000e+00  2.4221518743954149e-01 1.8245798261896103e-02 0.0000000000000000e+00  2.2257578111268861e-01 7.1351879672193648e-03 0.0000000000000000e+00  2.2115076624510882e-01 6.5173177213796859e-03 0.0000000000000000e+00  2.1977123478219054e-01 5.9073790365875983e-03 0.0000000000000000e+00  2.0045912282593639e-01 -1.9046732429914986e-03 0.0000000000000000e+00  2.1983739837134772e-01 5.8732159117680198e-03 0.0000000000000000e+00  1.9962353750602813e-01 -1.5011875204939452e-02 0.0000000000000000e+00  2.1849507014013181e-01 5.2785068715080095e-03 0.0000000000000000e+00  2.5294818742665559e-01 -8.6831850211135903e-02 0.0000000000000000e+00  2.2252309581137428e-01 7.1596260819532962e-03 0.0000000000000000e+00  1.9802795276197310e-01 -1.0812248606972327e-01 0.0000000000000000e+00  2.1864744404126210e-01 5.2067261489471802e-03 0.0000000000000000e+00  2.1735151333906061e-01 4.6310418867546738e-03 0.0000000000000000e+00  2.1759094455391770e-01 4.5213739314448184e-03 0.0000000000000000e+00  2.1883978819113034e-01 5.1103467264510408e-03 0.0000000000000000e+00  1.7782356397800800e-01 -5.2018280207086959e-02 0.0000000000000000e+00  2.1958704906371224e-01 9.2595953465639085e-04 0.0000000000000000e+00  2.4662554139953888e-01 1.6446890169004726e-02 0.0000000000000000e+00  2.1634921883350727e-01 3.9683477161792232e-03 0.0000000000000000e+00  2.1605907728539667e-01 4.0835678973499641e-03 0.0000000000000000e+00  2.1786870666834557e-01 4.3845446906839204e-03 0.0000000000000000e+00  2.1907239199096704e-01 4.9925611768360688e-03 0.0000000000000000e+00  2.7078710340517459e-01 -6.9898653267708291e-02 0.0000000000000000e+00  1.9255178795749872e-01 -2.1319384613596146e-02 0.0000000000000000e+00  2.1511616294610544e-01 3.4456596528837534e-03 0.0000000000000000e+00  2.1477235607404274e-01 3.5595380188984667e-03 0.0000000000000000e+00  2.1818467316066054e-01 4.2226519563127842e-03 0.0000000000000000e+00  2.1934462361604803e-01 4.8543306880492821e-03 0.0000000000000000e+00  2.2028831981000999e-01 5.6532258329630115e-03 0.0000000000000000e+00  2.2052128461966344e-01 5.5472914145955456e-03 0.0000000000000000e+00  2.2151759025039217e-01 6.3766570853083663e-03 0.0000000000000000e+00  2.1965641517067955e-01 4.6929140840488081e-03 0.0000000000000000e+00  1.5841089248247420e-01 -1.2045140662408302e-01 0.0000000000000000e+00  2.0222458664470724e-01 -8.9969898751367742e-03 0.0000000000000000e+00  2.0251848374197695e-01 -2.1594224973106027e-04 0.0000000000000000e+00  2.5552748393388164e-01 -9.1593926062200834e-03 0.0000000000000000e+00  2.6237365650632932e-01 -2.4044707858716985e-02 0.0000000000000000e+00  2.2285889073274787e-01 4.7028670860884449e-03 0.0000000000000000e+00  2.2951515498767383e-01 1.2837195922481960e-02 0.0000000000000000e+00  2.3516845402580328e-01 1.5965896605431198e-02 0.0000000000000000e+00  2.4504170077665549e-01 8.2357730689053450e-03 0.0000000000000000e+00  2.4487632063634665e-01 1.2052010527973707e-02 0.0000000000000000e+00  2.4495973133469912e-01 1.8779204719983830e-02 0.0000000000000000e+00  2.0836521139339312e-01 3.5547738689866359e-04 0.0000000000000000e+00  2.1238425230422420e-01 5.5281740567783393e-04 0.0000000000000000e+00  2.2201238496778899e-01 7.4969404945701159e-04 0.0000000000000000e+00  2.2300862766876675e-01 -4.5081563389960688e-04 0.0000000000000000e+00  2.2490133398880141e-01 8.1972743584509994e-04 0.0000000000000000e+00  2.2608392102249555e-01 -4.6771053252237307e-04 0.0000000000000000e+00  2.2787920403376763e-01 8.3379184652388459e-04 0.0000000000000000e+00  2.2923426327542099e-01 -5.3969994973226065e-04 0.0000000000000000e+00  2.3090632732491423e-01 7.9662453275194207e-04 0.0000000000000000e+00  2.3241387051313347e-01 -6.6212995126147499e-04 0.0000000000000000e+00  2.3393410812387883e-01 7.0983909932132621e-04 0.0000000000000000e+00  2.3246661593645090e-01 2.0171060895323892e-03 0.0000000000000000e+00  2.3077616847563132e-01 -2.1637540120958447e-03 0.0000000000000000e+00  2.3410658854244196e-01 -2.3761857747975862e-03 0.0000000000000000e+00  2.3251536130361508e-01 -4.0630236241293166e-03 0.0000000000000000e+00  2.3599801454632705e-01 -4.3705479240127324e-03 0.0000000000000000e+00  2.3445124741247225e-01 -6.2682412585916480e-03 0.0000000000000000e+00  2.3535296099555256e-01 1.9535054437653