<?xml version="1.0"?>
<VTKFile type="UnstructuredGrid"  version="0.1"  >
<UnstructuredGrid>
<Piece  NumberOfPoints="1668" NumberOfCells="3137">
<Points>
<DataArray  type="Float64"  NumberOfComponents="3"  format="ascii">0 0 0  15 0 0  15 6.334275927846321 0  25.0246546248032 6.334275927846321 0  26.56610947557465 2.982575158331955 0  35.09008004188062 8.542927762364949 0  35.09008004188062 12.5 0  0 12.5 0  0.5 0 0  1 0 0  1.5 0 0  2 0 0  2.5 0 0  3 0 0  3.5 0 0  4 0 0  4.5 0 0  5 0 0  5.5 0 0  6 0 0  6.5 0 0  7 0 0  7.5 0 0  8 0 0  8.5 0 0  9 0 0  9.5 0 0  10 0 0  10.5 0 0  11 0 0  11.5 0 0  12 0 0  12.5 0 0  13 0 0  13.5 0 0  14 0 0  14.5 0 0  15 0.487251994449717 0  15 0.974503988899434 0  15 1.461755983349151 0  15 1.949007977798868 0  15 2.436259972248585 0  15 2.923511966698302 0  15 3.410763961148019 0  15 3.898015955597736 0  15 4.385267950047453 0  15 4.87251994449717 0  15 5.359771938946887 0  15 5.847023933396605 0  15.47736450594301 6.334275927846321 0  15.95472901188602 6.334275927846321 0  16.43209351782903 6.334275927846321 0  16.90945802377204 6.334275927846321 0  17.38682252971505 6.334275927846321 0  17.86418703565806 6.334275927846321 0  18.34155154160107 6.334275927846321 0  18.81891604754408 6.334275927846321 0  19.29628055348709 6.334275927846321 0  19.77364505943009 6.334275927846321 0  20.2510095653731 6.334275927846321 0  20.72837407131611 6.334275927846321 0  21.20573857725912 6.334275927846321 0  21.68310308320213 6.334275927846321 0  22.16046758914514 6.334275927846321 0  22.63783209508815 6.334275927846321 0  23.11519660103116 6.334275927846321 0  23.59256110697417 6.334275927846321 0  24.06992561291718 6.334275927846321 0  24.54729011886019 6.334275927846321 0  25.21733648114963 5.915313331657026 0  25.41001833749606 5.49635073546773 0  25.60270019384249 5.077388139278434 0  25.79538205018892 4.658425543089138 0  25.98806390653536 4.239462946899843 0  26.18074576288178 3.820500350710547 0  26.37342761922822 3.401537754521251 0  26.97201283587493 3.247353853762098 0  27.37791619617522 3.51213254919224 0  27.7838195564755 3.776911244622383 0  28.18972291677579 4.041689940052525 0  28.59562627707607 4.306468635482668 0  29.00152963737635 4.571247330912811 0  29.40743299767664 4.836026026342953 0  29.81333635797692 5.100804721773096 0  30.21923971827721 5.365583417203238 0  30.62514307857749 5.630362112633382 0  31.03104643887778 5.895140808063523 0  31.43694979917806 6.159919503493666 0  31.84285315947835 6.424698198923808 0  32.24875651977863 6.689476894353951 0  32.65465988007891 6.954255589784093 0  33.0605632403792 7.219034285214236 0  33.46646660067948 7.483812980644378 0  33.87236996097977 7.748591676074521 0  34.27827332128005 8.013370371504664 0  34.68417668158033 8.278149066934807 0  35.09008004188062 9.037561792069329 0  35.09008004188062 9.532195821773712 0  35.09008004188062 10.02682985147809 0  35.09008004188062 10.52146388118247 0  35.09008004188062 11.01609791088686 0  35.09008004188062 11.51073194059124 0  35.09008004188062 12.00536597029562 0  34.59585356241751 12.5 0  34.1016270829544 12.5 0  33.6074006034913 12.5 0  33.11317412402819 12.5 0  32.61894764456508 12.5 0  32.12472116510197 12.5 0  31.63049468563887 12.5 0  31.13626820617576 12.5 0  30.64204172671265 12.5 0  30.14781524724955 12.5 0  29.65358876778644 12.5 0  29.15936228832333 12.5 0  28.66513580886022 12.5 0  28.17090932939712 12.5 0  27.67668284993401 12.5 0  27.1824563704709 12.5 0  26.68822989100779 12.5 0  26.19400341154468 12.5 0  25.69977693208158 12.5 0  25.20555045261847 12.5 0  24.71132397315537 12.5 0  24.21709749369226 12.5 0  23.72287101422915 12.5 0  23.22864453476604 12.5 0  22.73441805530294 12.5 0  22.24019157583983 12.5 0  21.74596509637672 12.5 0  21.25173861691361 12.5 0  20.7575121374505 12.5 0  20.2632856579874 12.5 0  19.76905917852429 12.5 0  19.27483269906119 12.5 0  18.78060621959808 12.5 0  18.28637974013497 12.5 0  17.79215326067186 12.5 0  17.29792678120875 12.5 0  16.80370030174565 12.5 0  16.30947382228254 12.5 0  15.81524734281943 12.5 0  15.32102086335632 12.5 0  14.82679438389322 12.5 0  14.33256790443011 12.5 0  13.838341424967 12.5 0  13.3441149455039 12.5 0  12.84988846604079 12.5 0  12.35566198657768 12.5 0  11.86143550711457 12.5 0  11.36720902765147 12.5 0  10.87298254818836 12.5 0  10.37875606872525 12.5 0  9.884529589262144 12.5 0  9.390303109799039 12.5 0  8.89607663033593 12.5 0  8.401850150872821 12.5 0  7.907623671409716 12.5 0  7.413397191946608 12.5 0  6.919170712483499 12.5 0  6.424944233020394 12.5 0  5.930717753557285 12.5 0  5.43649127409418 12.5 0  4.942264794631072 12.5 0  4.448038315167963 12.5 0  3.953811835704858 12.5 0  3.45958535624175 12.5 0  2.965358876778645 12.5 0  2.471132397315536 12.5 0  1.976905917852427 12.5 0  1.482679438389319 12.5 0  0.9884529589262101 12.5 0  0.4942264794631086 12.5 0  0 12 0  0 11.5 0  0 11 0  0 10.5 0  0 10 0  0 9.5 0  0 9 0  0 8.5 0  0 8 0  0 7.5 0  0 7 0  0 6.5 0  0 6 0  0 5.5 0  0 5 0  0 4.5 0  0 4 0  0 3.5 0  0 3 0  0 2.5 0  0 2 0  0 1.5 0  0 1 0  0 0.5 0  8.753743745344284 0.4474371448315715 0  6.201649019763064 0.4750203753175963 0  7.660510431678162 12.071987313562 0  0.4305016695670769 6.263169050285663 0  14.58281270381756 6.090352883383963 0  5.243385314313512 12.11344610630688 0  10.13165737940365 12.08012147362192 0  10.81465220477682 0.4428828526201007 0  0.4330127018922187 4.25 0  0.4618865583789358 8.254986992784669 0  30.17792524746012 5.838756296632672 0  4.246063572727733 0.4032499591369669 0  14.60609694185751 4.132007470916913 0  27.91945941512166 12.09751355899273 0  12.08231427595515 12.05460060618191 0  29.90085888958486 12.08688957048107 0  14.56180793551353 6.570760161917233 0  14.16393261388563 6.330516621549814 0  25.94637406637558 12.06944354959052 0  20.07389211007948 6.717082953216556 0  18.10448757245842 6.821521054518453 0  21.92892276411141 6.745942739667098 0  16.17497239319122 6.761992841951349 0  23.83156687712244 6.759722164436701 0  14.1633220254824 6.810219428615301 0  13.75145520395306 6.570174682653458 0  31.83739573023731 6.87219040612958 0  25.48180794401045 6.276506889783301 0  25.28319407525776 6.707637393439319 0  3.187023738087351 12.05600627001937 0  25.7534732639764 6.652834930048894 0  19.02771945932963 12.071987313562 0  20.98997441567778 12.08380470866865 0  17.0581560435694 12.06551006429078 0  22.98953029862864 12.11629808277071 0  13.7508401456576 7.050764095960259 0  13.33471412289805 6.810383887217092 0  15.07465852664969 12.07190904246084 0  25.557853197365 7.088676530527365 0  26.02364474130298 7.045884010433493 0  13.33469398674623 7.292008065090796 0  12.91744147130535 7.050978050743617 0  12.91760132822927 6.568488291685251 0  12.50422588545602 6.800001320310797 0  12.4999573635067 6.32388468858001 0  12.07918276952759 6.567491867420891 0  12.07942268309064 6.082014398477682 0  11.65185310179161 6.35035236003659 0  11.65726529472125 5.84196482241162 0  11.2347562839494 6.085710671796159 0  11.22099625199327 6.595177215032162 0  10.81051565069393 6.329756660369381 0  10.81339703238723 5.83681648785124 0  10.3896679519539 6.081001210267202 0  10.38945156921674 6.569982416771938 0  9.966123208887426 6.324669585218485 0  9.978741292559299 6.792248469931841 0  9.536779145883305 6.577892854327566 0  9.541092531320036 6.080731884511369 0  9.10887121433619 6.338019073317215 0  9.115414003874781 5.836208282773743 0  8.689999569642072 6.081077611037181 0  8.691806469558998 6.569663284544761 0  8.26543331896579 6.324596397148352 0  8.265527771069067 5.832425071328249 0  7.839267934241995 6.078033959095105 0  7.839289903011762 6.570612742586421 0  7.412563582807577 6.324169320389464 0  7.409769651570876 6.812163297385347 0  6.984902483891879 6.569855995077994 0  6.985595723825387 6.077292686319193 0  6.557685929308828 6.323871133582448 0  6.557780186686387 5.8300581437836 0  6.129741051574999 6.076991822570561 0  6.127192445507367 6.620662868551753 0  6.129812335233755 5.582402090711607 0  5.701143947272248 5.829733764564496 0  5.701200664789434 5.334680306489819 0  6.130010608506717 5.087610008422971 0  31.86585047113308 12.07876189575596 0  24.4725350931147 12.10291838722111 0  2.7499975177507 0.4326348441830943 0  14.58389246085105 2.677913890304616 0  12.44564635767496 7.325998360539797 0  13.75221979096818 7.532617234258538 0  5.272100816758709 5.582277610927626 0  5.272459813582337 5.086575794642174 0  33.04062577149408 7.686540446912218 0  25.82821171829174 7.474006502950662 0  26.29555569211907 7.430982285728636 0  13.54013112699827 12.08340045117527 0  4.842487093759893 5.334485225831516 0  4.862015322521236 5.796801882053483 0  4.842940620674096 4.838086014768169 0  0.4514480461839927 9.672814895334477 0  26.09930259967975 7.858951407830927 0  26.56769050646486 7.814831660474663 0  12.26354803014656 0.4171524121269972 0  0.4710519052944093 2.798447646348418 0  25.62966246649183 7.901759442304628 0  4.412519313944147 5.086378941900988 0  4.412598958802143 4.589628221586089 0  4.843323923069207 4.341288623722242 0  26.37211615750221 8.24574838368919 0  26.84196162505447 8.196026196934218 0  4.412683377961974 4.092581237867146 0  26.76631899419588 7.380572769299545 0  34.64041553076644 10.26300213553293 0  26.64565763766327 8.633508247645382 0  27.11996833926946 8.584226346485924 0  4.843730521389984 3.844087194909487 0  3.982215916082877 4.838051704850403 0  4.412725363205713 3.595187195128013 0  26.92097953229812 9.023487231014748 0  27.39721731105839 8.979481838944636 0  27.59650219436657 8.538969304599053 0  27.87460420221324 8.935022799678171 0  26.44456092258411 9.066198320753239 0  28.07456607289081 8.495497300078529 0  28.35343442816832 8.890898217423132 0  26.06419120236058 4.997733081445814 0  28.97979651040438 5.04737734969051 0  28.55404215844921 8.450014252788192 0  28.83369139107041 8.846384541582296 0  12.08939642192762 5.594968671096691 0  4.844129776203294 3.346521203827793 0  29.03483104245346 8.407927257564218 0  29.31528731954265 8.801754
[...]
<PointData  Vectors="u"> 
<DataArray  type="Float64"  Name="u"  NumberOfComponents="3" format="ascii">-1.1767181720396495e-01 9.0907582464988413e-03 0.0000000000000000e+00  -1.1097785338484248e-01 -5.3261600897702547e-04 0.0000000000000000e+00  -9.5224508738219901e-02 3.0481101941657636e-04 0.0000000000000000e+00  -6.4918305393090445e-02 -3.7502725845183511e-03 0.0000000000000000e+00  1.3677263064378407e-02 3.0480298176766008e-03 0.0000000000000000e+00  -6.2911628423338584e-02 3.8334959984802058e-03 0.0000000000000000e+00  -6.4469736413829790e-02 0.0000000000000000e+00 0.0000000000000000e+00  -1.1136218779218660e-01 0.0000000000000000e+00 0.0000000000000000e+00  -1.1717047959999584e-01 8.8400733476870635e-03 0.0000000000000000e+00  -1.1666669006072104e-01 8.5926512952886561e-03 0.0000000000000000e+00  -1.1616167206962968e-01 8.3548307376974020e-03 0.0000000000000000e+00  -1.1565983359837061e-01 8.1316389376676641e-03 0.0000000000000000e+00  -1.1516588567058871e-01 7.9244425126807280e-03 0.0000000000000000e+00  -1.1468364962108069e-01 7.7317427875246798e-03 0.0000000000000000e+00  -1.1421535902507210e-01 7.5564362880754798e-03 0.0000000000000000e+00  -1.1376738524516693e-01 7.3938682623706968e-03 0.0000000000000000e+00  -1.1334065753037227e-01 7.2410236686393454e-03 0.0000000000000000e+00  -1.1293933021080117e-01 7.0988004951277536e-03 0.0000000000000000e+00  -1.1256553487076532e-01 6.9566789559677737e-03 0.0000000000000000e+00  -1.1222158658127705e-01 6.8230655058845397e-03 0.0000000000000000e+00  -1.1190769794445725e-01 6.6772826111862185e-03 0.0000000000000000e+00  -1.1163332641300719e-01 6.5295523845574641e-03 0.0000000000000000e+00  -1.1138475980467705e-01 6.3698735489034555e-03 0.0000000000000000e+00  -1.1117533672452201e-01 6.1864152393104220e-03 0.0000000000000000e+00  -1.1100372542758101e-01 5.9816474263861647e-03 0.0000000000000000e+00  -1.1087067154716911e-01 5.7489305475147577e-03 0.0000000000000000e+00  -1.1077513895645902e-01 5.4834911119562560e-03 0.0000000000000000e+00  -1.1071844110615621e-01 5.1796030903240751e-03 0.0000000000000000e+00  -1.1069241614556583e-01 4.8234057991371707e-03 0.0000000000000000e+00  -1.1069451984222037e-01 4.4153125643506064e-03 0.0000000000000000e+00  -1.1072898630390378e-01 3.9590464303529095e-03 0.0000000000000000e+00  -1.1077309635746692e-01 3.4403923937903480e-03 0.0000000000000000e+00  -1.1082883297817019e-01 2.8667923590149995e-03 0.0000000000000000e+00  -1.1088401708972045e-01 2.2396701234501963e-03 0.0000000000000000e+00  -1.1093092703276142e-01 1.5711927765293477e-03 0.0000000000000000e+00  -1.1096236607767729e-01 8.7518029075737698e-04 0.0000000000000000e+00  -1.1097621992117064e-01 1.6895200249269379e-04 0.0000000000000000e+00  -1.1030243400213802e-01 -5.3395649949593326e-04 0.0000000000000000e+00  -1.0963139529854897e-01 -5.4694525776387813e-04 0.0000000000000000e+00  -1.0895414029178224e-01 -5.7943573467578245e-04 0.0000000000000000e+00  -1.0824929017227132e-01 -6.2906003183667454e-04 0.0000000000000000e+00  -1.0750224766148116e-01 -6.9636728838310704e-04 0.0000000000000000e+00  -1.0669372197137945e-01 -7.7318233535942998e-04 0.0000000000000000e+00  -1.0580364993078589e-01 -8.5679885594600437e-04 0.0000000000000000e+00  -1.0480671887792080e-01 -9.3622336226210868e-04 0.0000000000000000e+00  -1.0367154629150419e-01 -9.9785639648149161e-04 0.0000000000000000e+00  -1.0234674455024363e-01 -1.0174372875560293e-03 0.0000000000000000e+00  -1.0074601147812196e-01 -9.4036740910123868e-04 0.0000000000000000e+00  -9.8678582197646067e-02 -6.3380219495027027e-04 0.0000000000000000e+00  -9.3036135597959133e-02 1.5328811945808764e-03 0.0000000000000000e+00  -9.1445104648964048e-02 2.0835320054622096e-03 0.0000000000000000e+00  -9.0138432599066828e-02 2.4911524949988943e-03 0.0000000000000000e+00  -8.8975678572624076e-02 2.7906596629325591e-03 0.0000000000000000e+00  -8.7890189611571565e-02 3.0018033841009177e-03 0.0000000000000000e+00  -8.6853768927731112e-02 3.1510320634159108e-03 0.0000000000000000e+00  -8.5842799092748112e-02 3.2408710098852755e-03 0.0000000000000000e+00  -8.4850490391229105e-02 3.2788049215419900e-03 0.0000000000000000e+00  -8.3862584899627585e-02 3.2621775378607835e-03 0.0000000000000000e+00  -8.2867819615707008e-02 3.1977172581419823e-03 0.0000000000000000e+00  -8.1858663063586676e-02 3.0848272766905859e-03 0.0000000000000000e+00  -8.0828945834056282e-02 2.9138991635687230e-03 0.0000000000000000e+00  -7.9758298117273363e-02 2.7018018355189090e-03 0.0000000000000000e+00  -7.8643126598267582e-02 2.4251674361194116e-03 0.0000000000000000e+00  -7.7461089925405249e-02 2.0835724024455275e-03 0.0000000000000000e+00  -7.6184051405957687e-02 1.6853920189341389e-03 0.0000000000000000e+00  -7.4786163183467633e-02 1.1884412326331252e-03 0.0000000000000000e+00  -7.3204329333392118e-02 5.8872605233764239e-04 0.0000000000000000e+00  -7.1311533658365941e-02 -2.1269388688332507e-04 0.0000000000000000e+00  -6.8819993130484161e-02 -1.3594063419279576e-03 0.0000000000000000e+00  -5.7694985984202730e-02 -5.4277431310855518e-03 0.0000000000000000e+00  -5.1261344553766193e-02 -6.3178333318338123e-03 0.0000000000000000e+00  -4.4269293645488997e-02 -6.6026785561517443e-03 0.0000000000000000e+00  -3.6007050027937540e-02 -6.2703398003695083e-03 0.0000000000000000e+00  -2.5989653002488015e-02 -5.0948831580243260e-03 0.0000000000000000e+00  -1.4114330981091831e-02 -2.9487985922494286e-03 0.0000000000000000e+00  -6.8243150507085357e-04 -2.0759433610725073e-05 0.0000000000000000e+00  -4.0458735618410010e-04 1.0653556912081402e-02 0.0000000000000000e+00  -1.2426397354759394e-02 1.4430294781599047e-02 0.0000000000000000e+00  -2.2292273036261852e-02 1.6466544903336433e-02 0.0000000000000000e+00  -3.0210661427890830e-02 1.7310261068419399e-02 0.0000000000000000e+00  -3.6816888967220754e-02 1.7267946606585247e-02 0.0000000000000000e+00  -4.2178510186405893e-02 1.6739025728691855e-02 0.0000000000000000e+00  -4.6534752040482519e-02 1.5885930759241596e-02 0.0000000000000000e+00  -5.0100211979970166e-02 1.4883455325822248e-02 0.0000000000000000e+00  -5.3006543127865430e-02 1.3776932001982720e-02 0.0000000000000000e+00  -5.5370466488945100e-02 1.2578030676971476e-02 0.0000000000000000e+00  -5.7284677864436286e-02 1.1424293848604142e-02 0.0000000000000000e+00  -5.8834901473990994e-02 1.0260968593292242e-02 0.0000000000000000e+00  -6.0065174122805612e-02 9.1336124159860348e-03 0.0000000000000000e+00  -6.1019311321427308e-02 8.0736991676962563e-03 0.0000000000000000e+00  -6.1747866137762730e-02 7.1083690199173002e-03 0.0000000000000000e+00  -6.2267037504356179e-02 6.2081780294074261e-03 0.0000000000000000e+00  -6.2608539955826437e-02 5.4253759006481859e-03 0.0000000000000000e+00  -6.2820593359950147e-02 4.7757867612987538e-03 0.0000000000000000e+00  -6.2912338553007235e-02 4.2685794263311915e-03 0.0000000000000000e+00  -6.2922027279010320e-02 3.9392459337786985e-03 0.0000000000000000e+00  -6.2959848515958816e-02 3.7818340027498645e-03 0.0000000000000000e+00  -6.3179872707537818e-02 3.5868107032379615e-03 0.0000000000000000e+00  -6.3472515867944959e-02 3.2394094699419763e-03 0.0000000000000000e+00  -6.3778176990673049e-02 2.7573634015831861e-03 0.0000000000000000e+00  -6.4052141724780090e-02 2.1655225749114327e-03 0.0000000000000000e+00  -6.4269754901111836e-02 1.4921447055312937e-03 0.0000000000000000e+00  -6.4410612633315212e-02 7.6615090129254532e-04 0.0000000000000000e+00  -6.4759116418339771e-02 0.0000000000000000e+00 0.0000000000000000e+00  -6.5062184389331368e-02 0.0000000000000000e+00 0.0000000000000000e+00  -6.5405134500117854e-02 0.0000000000000000e+00 0.0000000000000000e+00  -6.5809786565704548e-02 0.0000000000000000e+00 0.0000000000000000e+00  -6.6293735134424298e-02 0.0000000000000000e+00 0.0000000000000000e+00  -6.6837878296106448e-02 0.0000000000000000e+00 0.0000000000000000e+00  -6.7462637051116228e-02 0.0000000000000000e+00 0.0000000000000000e+00  -6.8159564256497038e-02 0.0000000000000000e+00 0.0000000000000000e+00  -6.8915810716264958e-02 0.0000000000000000e+00 0.0000000000000000e+00  -6.9715739525021317e-02 0.0000000000000000e+00 0.0000000000000000e+00  -7.0541851519043450e-02 0.0000000000000000e+00 0.0000000000000000e+00  -7.1375102977799046e-02 0.0000000000000000e+00 0.0000000000000000e+00  -7.2198086372591425e-02 0.0000000000000000e+00 0.0000000000000000e+00  -7.2991891874094703e-02 0.0000000000000000e+00 0.0000000000000000e+00  -7.3742996261471933e-02 0.0000000000000000e+00 0.0000000000000000e+00  -7.4439122862085219e-02 0.0000000000000000e+00 0.0000000000000000e+00  -7.5076129159432792e-02 0.0000000000000000e+00 0.0000000000000000e+00  -7.5654366900543113e-02 0.0000000000000000e+00 0.0000000000000000e+00  -7.6182529327763454e-02 0.0000000000000000e+00 0.0000000000000000e+00  -7.6672490942357077e-02 0.0000000000000000e+00 0.0000000000000000e+00  -7.7140070126973562e-02 0.0000000000000000e+00 0.0000000000000000e+00  -7.7602296686569011e-02 0.0000000000000000e+00 0.0000000000000000e+00  -7.8076150974477981e-02 0.0000000000000000e+00 0.0000000000000000e+00  -7.8576423924491115e-02 0.0000000000000000e+00 0.0000000000000000e+00  -7.9113122752219003e-02 0.0000000000000000e+00 0.0000000000000000e+00  -7.9693311313001378e-02 0.0000000000000000e+00 0.0000000000000000e+00  -8.0319405731847301e-02 0.0000000000000000e+00 0.0000000000000000e+00  -8.0988331179045470e-02 0.0000000000000000e+00 0.0000000000000000e+00  -8.1695747804791843e-02 0.0000000000000000e+00 0.0000000000000000e+00  -8.2436355164605415e-02 0.0000000000000000e+00 0.0000000000000000e+00  -8.3202566732572730e-02 0.0000000000000000e+00 0.0000000000000000e+00  -8.3986945148310066e-02 0.0000000000000000e+00 0.0000000000000000e+00  -8.4782066317686020e-02 0.0000000000000000e+00 0.0000000000000000e+00  -8.5581405467821239e-02 0.0000000000000000e+00 0.0000000000000000e+00  -8.6378123805858839e-02 0.0000000000000000e+00 0.0000000000000000e+00  -8.7167580423809024e-02 0.0000000000000000e+00 0.0000000000000000e+00  -8.7945756060361341e-02 0.0000000000000000e+00 0.0000000000000000e+00  -8.8711132733301529e-02 0.0000000000000000e+00 0.0000000000000000e+00  -8.9463584978499183e-02 0.0000000000000000e+00 0.0000000000000000e+00  -9.0204919128608244e-02 0.0000000000000000e+00 0.0000000000000000e+00  -9.0937938005016983e-02 0.0000000000000000e+00 0.0000000000000000e+00  -9.1665965764910429e-02 0.0000000000000000e+00 0.0000000000000000e+00  -9.2392400327949903e-02 0.0000000000000000e+00 0.0000000000000000e+00  -9.3121528893014643e-02 0.0000000000000000e+00 0.0000000000000000e+00  -9.3851951052834906e-02 0.0000000000000000e+00 0.0000000000000000e+00  -9.4585882076382716e-02 0.0000000000000000e+00 0.0000000000000000e+00  -9.5326039706592841e-02 0.0000000000000000e+00 0.0000000000000000e+00  -9.6068516224072309e-02 0.0000000000000000e+00 0.0000000000000000e+00  -9.6811700603063044e-02 0.0000000000000000e+00 0.0000000000000000e+00  -9.7553684136583510e-02 0.0000000000000000e+00 0.0000000000000000e+00  -9.8292560240986634e-02 0.0000000000000000e+00 0.0000000000000000e+00  -9.9026418023700033e-02 0.0000000000000000e+00 0.0000000000000000e+00  -9.9753522086037855e-02 0.0000000000000000e+00 0.0000000000000000e+00  -1.0046958323199916e-01 0.0000000000000000e+00 0.0000000000000000e+00  -1.0118142809849853e-01 0.0000000000000000e+00 0.0000000000000000e+00  -1.0188050228473311e-01 0.0000000000000000e+00 0.0000000000000000e+00  -1.0256870007910361e-01 0.0000000000000000e+00 0.0000000000000000e+00  -1.0324534501573741e-01 0.0000000000000000e+00 0.0000000000000000e+00  -1.0391124095041188e-01 0.0000000000000000e+00 0.0000000000000000e+00  -1.0456642937622136e-01 0.0000000000000000e+00 0.0000000000000000e+00  -1.0521078565382005e-01 0.0000000000000000e+00 0.0000000000000000e+00  -1.0584492524290279e-01 0.0000000000000000e+00 0.0000000000000000e+00  -1.0646995438962359e-01 0.0000000000000000e+00 0.0000000000000000e+00  -1.0708747503547902e-01 0.0000000000000000e+00 0.0000000000000000e+00  -1.0769934387338558e-01 0.0000000000000000e+00 0.0000000000000000e+00  -1.0830740847106216e-01 0.0000000000000000e+00 0.0000000000000000e+00  -1.0891299581717076e-01 0.0000000000000000e+00 0.0000000000000000e+00  -1.0951951548120628e-01 0.0000000000000000e+00 0.0000000000000000e+00  -1.1012763995678908e-01 0.0000000000000000e+00 0.0000000000000000e+00  -1.1074102597462364e-01 0.0000000000000000e+00 0.0000000000000000e+00  -1.1138409478240011e-01 5.4465395406489553e-04 0.0000000000000000e+00  -1.1143780721103234e-01 1.0859233431790561e-03 0.0000000000000000e+00  -1.1152849397428420e-01 1.6213669131443975e-03 0.0000000000000000e+00  -1.1165306920298494e-01 2.1486578601207199e-03 0.0000000000000000e+00  -1.1181203370714689e-01 2.6651228001528379e-03 0.0000000000000000e+00  -1.1200198137284623e-01 3.1675473435846119e-03 0.0000000000000000e+00  -1.1222387108858484e-01 3.6605298000689460e-03 0.0000000000000000e+00  -1.1247057383983736e-01 4.1327057667120085e-03 0.0000000000000000e+00  -1.1273976033375925e-01 4.5843009535028846e-03 0.0000000000000000e+00  -1.1303663498646264e-01 5.0184370734347545e-03 0.0000000000000000e+00  -1.1334700423267978e-01 5.4283267981838244e-03 0.0000000000000000e+00  -1.1367224889584035e-01 5.8153035897239398e-03 0.0000000000000000e+00  -1.1400960174669304e-01 6.1790143740781739e-03 0.0000000000000000e+00  -1.1435216560104000e-01 6.5170789920155668e-03 0.0000000000000000e+00  -1.1469688995542660e-01 6.8321597324476797e-03 0.0000000000000000e+00  -1.1504048483959303e-01 7.1243837676041302e-03 0.0000000000000000e+00  -1.1538080743528352e-01 7.3943822779132945e-03 0.0000000000000000e+00  -1.1571089638016473e-01 7.6452766177201930e-03 0.0000000000000000e+00  -1.1603102731837343e-01 7.8778834963195449e-03 0.0000000000000000e+00  -1.1633772857747078e-01 8.0955710474674251e-03 0.0000000000000000e+00  -1.1662944287846981e-01 8.3015843321795884e-03 0.0000000000000000e+00  -1.1690533542429803e-01 8.5010216113691923e-03 0.0000000000000000e+00  -1.1716956829015680e-01 8.6957545643027660e-03 0.0000000000000000e+00  -1.1742254998948912e-01 8.8920724435951875e-03 0.0000000000000000e+00  -1.1068727677649112e-01 5.8157429334622420e-03 0.0000000000000000e+00  -1.1191874262110466e-01 6.6426462718375337e-03 0.0000000000000000e+00  -1.0155150517421524e-01 3.0603863503611903e-04 0.0000000000000000e+00  -1.1334431645054792e-01 5.7226015684254073e-03 0.0000000000000000e+00  -9.7274023952370101e-02 9.4746845267022740e-04 0.0000000000000000e+00  -1.0483329983295581e-01 2.9472677041621117e-04 0.0000000000000000e+00  -9.7942538071801935e-02 2.5474524312778571e-04 0.0000000000000000e+00  -1.1030275383444392e-01 4.5707128624569576e-03 0.0000000000000000e+00  -1.1475315304688120e-01 6.9879105528150038e-03 0.0000000000000000e+00  -1.1204694004192925e-01 4.1261113678828353e-03 0.0000000000000000e+00  -5.5159497201605234e-02 1.3598256959599677e-02 0.0000000000000000e+00  -1.1341295651885387e-01 7.1799623047671462e-03 0.0000000000000000e+00  -1.0428702424451804e-01 -7.7097745654295996e-05 0.0000000000000000e+00  -7.3343283025045489e-02 5.1986572335116119e-04 0.0000000000000000e+00  -9.5014763742951203e-02 1.9428248015877707e-04 0.0000000000000000e+00  -7.0081303512464818e-02 7.9811423400142506e-04 0.0000000000000000e+00  -9.5453486716166755e-02 9.1084823748205335e-04 0.0000000000000000e+00  -9.7018427014472830e-02 1.4676085557489200e-03 0.0000000000000000e+00  -7.5886432047389041e-02 1.2510765742245830e-04 0.0000000000000000e+00  -8.2157674416971277e-02 2.8037511283352605e-03 0.0000000000000000e+00  -8.6406812748250336e-02 2.7871066592871450e-03 0.0000000000000000e+00  -7.7821483675458478e-02 1.8538900889279830e-03 0.0000000000000000e+00  -9.0968663595384747e-02 1.8471350144915540e-03 0.0000000000000000e+00  -7.2046298005461057e-02 -4.0169707880519855e-04 0.0000000000000000e+00  -9.5667325011692825e-02 1.2894951455661556e-03 0.0000000000000000e+00  -9.7030789464543618e-02 1.7974231491912449e-03 0.0000000000000000e+00  -6.0715657003199065e-02 8.9979749320495215e-03 0.0000000000000000e+00  -6.2679072449616874e-02 -2.7795446446639621e-03 0.0000000000000000e+00  -6.6525026827081168e-02 -2.7541473801484515e-03 0.0000000000000000e+00  -1.0744275661932527e-01 3.6304502751768165e-04 0.0000000000000000e+00  -6.5093590104617349e-02 -1.0047700862524532e-03 0.0000000000000000e+00  -8.4382404295891472e-02 9.2595969484503301e-05 0.0000000000000000e+00  -8.1341691284640458e-02 2.0009705684801272e-05 0.0000000000000000e+00  -8.7556484472513671e-02 9.0024607770327952e-05 0.0000000000000000e+00  -7.8801996293411419e-02 -8.1544420266112212e-05 0.0000000000000000e+00  -9.5945438720835108e-02 1.5808113262973241e-03 0.0000000000000000e+00  -9.7172422940523515e-02 2.0382188580497515e-03 0.0000000000000000e+00  -9.0585642780084755e-02 8.2200609425425860e-05 0.0000000000000000e+00  -6.7943712187307798e-02 -1.3857657150423467e-03 0.0000000000000000e+00  -6.6904804601466319e-02 5.0057036817120564e-04 0.0000000000000000e+00  -9.6252960292805195e-02 1.8004795555982460e-03 0.0000000000000000e+00  -9.7383561683503234e-02 2.2142826525272177e-03 0.0000000000000000e+00  -9.8356952086781788e-02 2.4513686143986637e-03 0.0000000000000000e+00  -9.8497611634957516e-02 2.5969517406018777e-03 0.0000000000000000e+00  -9.9476057496988540e-02 2.8200614033972271e-03 0.0000000000000000e+00  -9.9549582013393548e-02 2.9390245962975427e-03 0.0000000000000000e+00  -1.0051226071932211e-01 3.1477434093916705e-03 0.0000000000000000e+00  -1.0051245441502590e-01 3.2373625520641190e-03 0.0000000000000000e+00  -1.0147475891818103e-01 3.4421333425209053e-03 0.0000000000000000e+00  -1.0149567830718385e-01 3.5268700206575439e-03 0.0000000000000000e+00  -1.0063887732082590e-01 3.2937544353411753e-03 0.0000000000000000e+00  -1.0158645323886591e-01 3.5661482729722207e-03 0.0000000000000000e+00  -1.0240134291187628e-01 3.7857921170776866e-03 0.0000000000000000e+00  -1.0247541238481515e-01 3.8120256791091657e-03 0.0000000000000000e+00  -1.0173160935153006e-01 3.5695998883517707e-03 0.0000000000000000e+00  -1.0260159222503869e-01 3.8053222034985200e-03 0.0000000000000000e+00  -1.0193138829317336e-01 3.5546546227822919e-03 0.0000000000000000e+00  -1.0276471647832362e-01 3.7649736943135255e-03 0.0000000000000000e+00  -1.0343629970793308e-01 4.0219201404105087e-03 0.0000000000000000e+00  -1.0358481984415993e-01 3.9717465131891196e-03 0.0000000000000000e+00  -1.0424063078609093e-01 4.2252149943529634e-03 0.0000000000000000e+00  -1.0438929133205643e-01 4.1736152664056340e-03 0.0000000000000000e+00  -1.0378503100843917e-01 3.9098840742611586e-03 0.0000000000000000e+00  -1.0457274068875864e-01 4.1018728899701760e-03 0.0000000000000000e+00  -1.0516210388650339e-01 4.3614312980714935e-03 0.0000000000000000e+00  -1.0533762015351608e-01 4.2847014115486980e-03 0.0000000000000000e+00  -1.0478532343801765e-01 4.0115042889144990e-03 0.0000000000000000e+00  -1.0554174751020465e-01 4.1921467168333755e-03 0.0000000000000000e+00  -1.0503167054763296e-01 3.9101839349909252e-03 0.0000000000000000e+00  -1.0577209529331889e-01 4.0884320441314992e-03 0.0000000000000000e+00  -1.0627931538950802e-01 4.3684364787544595e-03 0.0000000000000000e+00  -1.0650200647841794e-01 4.2655105713690954e-03 0.0000000000000000e+00  -1.0699947466967884e-01 4.5418958437304707e-03 0.0000000000000000e+00  -1.0721707879300849e-01 4.4420255735594166e-03 0.0000000000000000e+00  -1.0670114797193359e-01 4.1256463084819468e-03 0.0000000000000000e+00  -1.0770273751400679e-01 4.7146974472432827e-03 0.0000000000000000e+00  -1.0791771884644791e-01 4.6197469230837562e-03 0.0000000000000000e+00  -1.0839065586415260e-01 4.8889272256583960e-03 0.0000000000000000e+00  -1.0819618877805887e-01 4.9718733055029319e-03 0.0000000000000000e+00  -6.7103593172202311e-02 7.6632490388039672e-04 0.0000000000000000e+00  -7.7329586155510277e-02 -6.6026963004194990e-05 0.0000000000000000e+00  -1.1474481521958511e-01 7.6607627790006416e-03 0.0000000000000000e+00  -1.0712831707572484e-01 -3.6128541942339662e-05 0.000000000