<?xml version="1.0"?>
<VTKFile type="UnstructuredGrid"  version="0.1"  >
<UnstructuredGrid>
<Piece  NumberOfPoints="1034" NumberOfCells="1918">
<Points>
<DataArray  type="Float64"  NumberOfComponents="3"  format="ascii">25 0 0  6.25 0 0  6.25 9.991060253195196 0  11.08914091777718 9.991060253195196 0  11.19511276663398 4.564916567415697 0  13.8586890965562 5.017232354312688 0  13.8586890965562 9.991060253195196 0  18.76005142381682 10.00223072572827 0  18.76005142381682 12.5 0  25 12.5 0  24.50657894736842 0 0  24.01315789473684 0 0  23.51973684210526 0 0  23.02631578947368 0 0  22.53289473684211 0 0  22.03947368421053 0 0  21.54605263157895 0 0  21.05263157894737 0 0  20.55921052631579 0 0  20.06578947368421 0 0  19.57236842105263 0 0  19.07894736842105 0 0  18.58552631578947 0 0  18.09210526315789 0 0  17.59868421052632 0 0  17.10526315789474 0 0  16.61184210526316 0 0  16.11842105263158 0 0  15.625 0 0  15.13157894736842 0 0  14.63815789473684 0 0  14.14473684210526 0 0  13.65131578947368 0 0  13.15789473684211 0 0  12.66447368421053 0 0  12.17105263157895 0 0  11.67763157894737 0 0  11.18421052631579 0 0  10.69078947368421 0 0  10.19736842105263 0 0  9.703947368421053 0 0  9.210526315789474 0 0  8.717105263157894 0 0  8.223684210526315 0 0  7.730263157894736 0 0  7.236842105263158 0 0  6.743421052631579 0 0  6.25 0.4995530126597598 0  6.25 0.9991060253195195 0  6.25 1.498659037979279 0  6.25 1.998212050639039 0  6.25 2.497765063298799 0  6.25 2.997318075958558 0  6.25 3.496871088618319 0  6.25 3.996424101278078 0  6.25 4.495977113937838 0  6.25 4.995530126597598 0  6.25 5.495083139257358 0  6.25 5.994636151917117 0  6.25 6.494189164576877 0  6.25 6.993742177236637 0  6.25 7.493295189896396 0  6.25 7.992848202556156 0  6.25 8.492401215215915 0  6.25 8.991954227875675 0  6.25 9.491507240535435 0  6.733914091777718 9.991060253195196 0  7.217828183555437 9.991060253195196 0  7.701742275333155 9.991060253195196 0  8.185656367110873 9.991060253195196 0  8.669570458888591 9.991060253195196 0  9.15348455066631 9.991060253195196 0  9.637398642444028 9.991060253195196 0  10.12131273422175 9.991060253195196 0  10.60522682599946 9.991060253195196 0  11.09877472221871 9.497774463578878 0  11.10840852666024 9.004488673962559 0  11.11804233110176 8.511202884346242 0  11.12767613554329 8.017917094729924 0  11.13730993998482 7.524631305113605 0  11.14694374442634 7.031345515497287 0  11.15657754886787 6.538059725880968 0  11.1662113533094 6.044773936264651 0  11.17584515775093 5.551488146648333 0  11.18547896219245 5.058202357032014 0  11.63904215495435 4.640302531898529 0  12.08297154327472 4.715688496381361 0  12.52690093159509 4.791074460864193 0  12.97083031991546 4.866460425347024 0  13.41475970823583 4.941846389829856 0  13.8586890965562 5.514615144200939 0  13.8586890965562 6.01199793408919 0  13.8586890965562 6.50938072397744 0  13.8586890965562 7.006763513865691 0  13.8586890965562 7.504146303753942 0  13.8586890965562 8.001529093642192 0  13.8586890965562 8.498911883530443 0  13.8586890965562 8.996294673418694 0  13.8586890965562 9.493677463306945 0  14.34882532928226 9.992177300448503 0  14.83896156200832 9.993294347701811 0  15.32909779473439 9.994411394955119 0  15.81923402746045 9.995528442208427 0  16.30937026018651 9.996645489461734 0  16.79950649291257 9.997762536715042 0  17.28964272563863 9.99887958396835 0  17.77977895836469 9.999996631221657 0  18.26991519109076 10.00111367847497 0  18.76005142381682 10.50178458058262 0  18.76005142381682 11.00133843543696 0  18.76005142381682 11.50089229029131 0  18.76005142381682 12.00044614514565 0  19.2400474681386 12.5 0  19.72004351246039 12.5 0  20.20003955678217 12.5 0  20.68003560110395 12.5 0  21.16003164542574 12.5 0  21.64002768974752 12.5 0  22.1200237340693 12.5 0  22.60001977839108 12.5 0  23.08001582271287 12.5 0  23.56001186703465 12.5 0  24.04000791135643 12.5 0  24.52000395567822 12.5 0  25 12 0  25 11.5 0  25 11 0  25 10.5 0  25 10 0  25 9.5 0  25 9 0  25 8.5 0  25 8 0  25 7.5 0  25 7 0  25 6.5 0  25 6 0  25 5.5 0  25 5 0  25 4.5 0  25 4 0  25 3.5 0  25 3 0  25 2.5 0  25 2 0  25 1.5 0  25 1 0  25 0.5 0  18.85829530572448 0.3935719242328188 0  24.51327428958591 5.283363639282589 0  14.26353207647169 5.271050475680331 0  18.5164995233119 9.577464353002476 0  20.85314496951466 0.4456447883290577 0  24.58588926684356 7.221081701122617 0  16.85833867894004 0.4179443833437055 0  19.00550209800385 9.557462735137303 0  18.76223921804028 9.151211673573224 0  19.25128464747139 9.152107682542608 0  19.00763384612811 8.732234207590345 0  24.57619067882729 3.265850221724548 0  19.49699359361755 8.732851238967482 0  19.25371392760218 8.309298806884883 0  14.23928613291775 6.758201582002869 0  14.26737076128225 4.803187304059573 0  14.6615961646208 5.034579488833027 0  19.74271711192534 8.310238175165106 0  19.49889204178488 7.885675915782538 0  19.01025917732451 7.882878789387134 0  19.25488939506479 7.460013100666368 0  19.74468554731329 7.461712345150013 0  19.50048240394666 7.036955520602328 0  24.60302181405283 9.761462884369957 0  6.639205194329152 2.796731747314991 0  19.0111637875841 7.035394791042792 0  19.25643020992413 6.612822175804729 0  19.74596339679179 6.613117590714819 0  19.5014970988261 6.188748156442316 0  9.455614999327768 0.3919811876685575 0  21.89843062665016 12.10053563390707 0  14.66233599425223 4.576844575747488 0  15.05857334781693 4.80556053092582 0  19.9913316785949 6.188759470065652 0  19.74629127169484 5.763757504527776 0  12.8141517860862 4.444313315333683 0  20.23686540406645 5.763794285843082 0  19.99114674137918 5.338848771722479 0  19.50097911236761 5.338953602272847 0  19.74569739569274 4.91450942008567 0  19.25656477207515 4.915456413247649 0  20.23607104065085 4.913607894769434 0  10.7700946365858 4.804656400441139 0  15.05757041146038 4.345315316166386 0  11.47387921666224 4.219835899491231 0  10.75090164764667 6.305649510753787 0  16.55540576784813 9.572733584232417 0  22.24747018403708 0.4145389070989154 0  19.98651058151319 8.734726625719112 0  20.48231573999726 6.18918291872521 0  13.90843584627336 0.4222638078931267 0  19.98962280640278 4.488473755640955 0  20.48088668505516 4.487785931959674 0  6.688121253507207 7.249821334167866 0  6.661915856610623 4.247112675492154 0  12.49126416508262 0.4189453150536036 0  6.666418133031081 5.716909654363152 0  8.879504168280459 9.59914865757953 0  15.3859823547805 0.4258160707074694 0  15.45891911344269 4.576455085146561 0  15.45875870215659 4.113260222900587 0  10.92036546896553 0.4184617115358895 0  15.05466466145156 3.881687200313639 0  18.76823381252004 6.612616563699924 0  20.23379717902442 4.062036275443836 0  20.72589798599498 4.061481158923634 0  20.97282100802045 4.487010382632279 0  15.45776854625324 5.039497916162497 0  15.45813705130618 3.647384041057669 0  15.8626612722965 3.87895125941375 0  21.21826898831009 4.060126194144322 0  15.05255902297686 3.41558982810829 0  10.73480708777089 7.759279630463523 0  15.8633723320286 3.410980908735427 0  16.27110657486105 3.644748789239074 0  21.46570323863582 4.486354373476487 0  20.47862782877295 3.636398954458403 0  19.98710992797049 3.636582586420634 0  19.22445270539798 10.80143992223021 0  21.71163304425012 4.058369661744154 0  16.27155237576371 3.173228741655146 0  16.68226915833432 3.410279220577154 0  16.68175246914253 3.883920680424549 0  23.30953168633693 12.06534779405942 0  7.976973684210527 0.427315166341006 0  14.31391990086026 8.264353640498886 0  24.60744807090729 1.746678860486467 0  20.23177233156839 3.211702607071199 0  19.74140498103733 3.212503108660187 0  17.09423940113485 3.648257947609887 0  17.0951687406399 3.172945679632189 0  17.09444464116116 4.123533434382685 0  21.95959642191048 4.485587186079853 0  19.9854116648464 2.787935420544938 0  20.47576071166806 2.786153451243169 0  19.49588316623183 2.798343597925761 0  22.20591256338682 4.057393158673039 0  21.95758836357714 3.62956087533698 0  11.03444115644137 4.128277947538486 0  11.30296175369761 3.79372578206426 0  10.86693560551571 3.709978663995446 0  11.14038773332416 3.361829498374433 0  10.7022997338895 3.276954793061249 0  10.40828290301742 3.637105746801709 0  10.24474986918259 3.197558237656441 0  9.944004955377128 3.562504229724739 0  9.775919857787759 3.120481302054479 0  9.473647089129106 3.486942289210047 0  9.304322496575406 3.042603033569951 0  10.99905082706199 2.917112778871943 0  11.48962863277432 3.052523532441246 0  9.002468344601379 3.412288099368389 0  9.171338279144368 3.859064043404447 0  8.823292231259273 2.973676795114094 0  9.602259828480666 2.682764071360973 0  19.26952450577024 3.197739930137154 0  19.03210818282566 2.755206713621339 0  11.30463693183895 2.557223439255972 0  11.7652557819058 2.633704290884031 0  19.75501157835378 2.40076359013382 0  22.45410409269283 4.48542399858428 0  22.20713211682958 4.912871724509017 0  20.44390926377748 12.09353413239726 0  22.45226280778802 3.628554365562949 0  22.20374846171823 3.200314780112756 0  18.5236230348123 7.033300637577784 0  18.28147183084214 6.612337979300872 0  18.03771152312902 7.031449010002806 0  17.79601550566852 6.611625699014178 0  17.55300656781279 7.030375946618213 0  17.31220949425317 6.610547556733537 0  17.06891671275742 7.028498668577494 0  17.30958488992108 7.449532706503293 0  16.82440042187252 7.447766078572095 0  16.58366494875749 7.026031982334377 0  16.33833461135642 7.446057884939904 0  17.55456594008666 6.193370787489731 0  18.27375181088788 9.150003353325387 0  17.81331145560432 0.4478137543377434 0  24.56831155129167 10.74985833872222 0  24.54878162534693 8.75173621571599 0  6.674318651285231 1.733664603112034 0  24.50207043621815 6.219038164644876 0  6.742450916074789 8.251207281497184 0  15.57685438719351 9.572074455848629 0  20.2322101435898 8.311492605576927 0  20.47588584634218 8.736138416786085 0  20.72178019738983 8.312800671092621 0  20.96565579289013 8.737695344240963 0  21.21195724234924 8.313772405095452 0  21.45589674987377 8.739296
[...]
<PointData  Vectors="u"> 
<DataArray  type="Float64"  Name="u"  NumberOfComponents="3" format="ascii">2.1212837407488305e-01 1.8195044838488550e-02 0.0000000000000000e+00  2.7517035970820847e-01 -2.8735702582031813e-01 0.0000000000000000e+00  -1.4740812100878248e-01 -3.0494185314418276e-01 0.0000000000000000e+00  -1.4982049834814548e-01 -8.7845095577070598e-02 0.0000000000000000e+00  1.1582752907698958e-01 -9.2081067252411178e-02 0.0000000000000000e+00  1.6059938907335713e-01 -3.4246517501727358e-02 0.0000000000000000e+00  1.6671363046625262e-01 -2.7599223558917758e-02 0.0000000000000000e+00  1.7038742684693370e-01 -5.6279132528369476e-03 0.0000000000000000e+00  1.7344412309637058e-01 0.0000000000000000e+00 0.0000000000000000e+00  1.7712903322394508e-01 0.0000000000000000e+00 0.0000000000000000e+00  2.1162945755048665e-01 1.6372033287408275e-02 0.0000000000000000e+00  2.1112863089024522e-01 1.4571227758505381e-02 0.0000000000000000e+00  2.1063489950423211e-01 1.2820758473661129e-02 0.0000000000000000e+00  2.1017368613922394e-01 1.1115527375350603e-02 0.0000000000000000e+00  2.0976189782353202e-01 9.4601592219203789e-03 0.0000000000000000e+00  2.0941711978063607e-01 7.8367868065725536e-03 0.0000000000000000e+00  2.0915158433022765e-01 6.2626640759808287e-03 0.0000000000000000e+00  2.0898709305919599e-01 4.6949058731645590e-03 0.0000000000000000e+00  2.0892513015346820e-01 3.1236836710263026e-03 0.0000000000000000e+00  2.0900032712487118e-01 1.5441345441764328e-03 0.0000000000000000e+00  2.0922461508852286e-01 -9.2467970930141686e-05 0.0000000000000000e+00  2.0962261800193496e-01 -1.7910705920904464e-03 0.0000000000000000e+00  2.1022391489213074e-01 -3.5542275689964369e-03 0.0000000000000000e+00  2.1102424323613483e-01 -5.4805204426049614e-03 0.0000000000000000e+00  2.1210486024339700e-01 -7.5664756870076830e-03 0.0000000000000000e+00  2.1348484755777053e-01 -9.9183184178602973e-03 0.0000000000000000e+00  2.1521683006409154e-01 -1.2573427554182288e-02 0.0000000000000000e+00  2.1734127157052738e-01 -1.5648263550590208e-02 0.0000000000000000e+00  2.1989200109590545e-01 -1.9280041393460793e-02 0.0000000000000000e+00  2.2288610190126890e-01 -2.3612615132169907e-02 0.0000000000000000e+00  2.2635157212716461e-01 -2.8788576798087013e-02 0.0000000000000000e+00  2.3030574112884047e-01 -3.4997105886205006e-02 0.0000000000000000e+00  2.3466067793357867e-01 -4.2368644088339708e-02 0.0000000000000000e+00  2.3905021741033772e-01 -5.1128012639783268e-02 0.0000000000000000e+00  2.4397535703498618e-01 -6.1213453811109292e-02 0.0000000000000000e+00  2.4885583716813339e-01 -7.2915287256301281e-02 0.0000000000000000e+00  2.5351178174553046e-01 -8.6092502996837739e-02 0.0000000000000000e+00  2.5802554788677118e-01 -1.0079054610281768e-01 0.0000000000000000e+00  2.6216753439151436e-01 -1.1683336870454918e-01 0.0000000000000000e+00  2.6581399100190328e-01 -1.3407203342270926e-01 0.0000000000000000e+00  2.6882536677072344e-01 -1.5223535710370142e-01 0.0000000000000000e+00  2.7121630673713953e-01 -1.7113582147096484e-01 0.0000000000000000e+00  2.7296417158010444e-01 -1.9044367752666883e-01 0.0000000000000000e+00  2.7414557098232056e-01 -2.1010208622424223e-01 0.0000000000000000e+00  2.7484004596560391e-01 -2.2962400830796650e-01 0.0000000000000000e+00  2.7513497259111691e-01 -2.4914843653657323e-01 0.0000000000000000e+00  2.7519855190250342e-01 -2.6835398937569854e-01 0.0000000000000000e+00  2.5600432213817870e-01 -2.8732957110926399e-01 0.0000000000000000e+00  2.3705479548702094e-01 -2.8738804648331656e-01 0.0000000000000000e+00  2.1830326848086640e-01 -2.8769391943432937e-01 0.0000000000000000e+00  1.9967308117785015e-01 -2.8836798373841938e-01 0.0000000000000000e+00  1.8089875503992967e-01 -2.8946455947606758e-01 0.0000000000000000e+00  1.6181362943911934e-01 -2.9097108951529471e-01 0.0000000000000000e+00  1.4225606148783251e-01 -2.9281083440355982e-01 0.0000000000000000e+00  1.2203562867420795e-01 -2.9477130299797477e-01 0.0000000000000000e+00  1.0117576937244215e-01 -2.9681251527123970e-01 0.0000000000000000e+00  7.9678255597811429e-02 -2.9873514246148503e-01 0.0000000000000000e+00  5.7654206945659543e-02 -3.0045125327695937e-01 0.0000000000000000e+00  3.5189356387604967e-02 -3.0189767825997965e-01 0.0000000000000000e+00  1.2425282539781190e-02 -3.0303084833652061e-01 0.0000000000000000e+00  -1.0492583657797339e-02 -3.0385236530119064e-01 0.0000000000000000e+00  -3.3462703534507358e-02 -3.0440870082955662e-01 0.0000000000000000e+00  -5.6437154242236852e-02 -3.0474162341726141e-01 0.0000000000000000e+00  -7.9319718581780177e-02 -3.0490439843493422e-01 0.0000000000000000e+00  -1.0210427780014471e-01 -3.0495560031116270e-01 0.0000000000000000e+00  -1.2479121780993468e-01 -3.0495331150736205e-01 0.0000000000000000e+00  -1.4739706077607512e-01 -2.8304185434561074e-01 0.0000000000000000e+00  -1.4739380081329737e-01 -2.6120206395210216e-01 0.0000000000000000e+00  -1.4743391028100836e-01 -2.3943306993162330e-01 0.0000000000000000e+00  -1.4755177015815973e-01 -2.1773920295515117e-01 0.0000000000000000e+00  -1.4776544724110227e-01 -1.9608811581777169e-01 0.0000000000000000e+00  -1.4807318181684015e-01 -1.7445336769297301e-01 0.0000000000000000e+00  -1.4845888741669319e-01 -1.5279858583122077e-01 0.0000000000000000e+00  -1.4889460366899049e-01 -1.3113443969975563e-01 0.0000000000000000e+00  -1.4935181767854258e-01 -1.0946633266051166e-01 0.0000000000000000e+00  -1.2776035274500475e-01 -8.7587107360190583e-02 0.0000000000000000e+00  -1.0562524276197438e-01 -8.7314730520675815e-02 0.0000000000000000e+00  -8.3399162103447069e-02 -8.7066909966266787e-02 0.0000000000000000e+00  -6.1070585702795284e-02 -8.6864469820981463e-02 0.0000000000000000e+00  -3.8605588561954743e-02 -8.6717184162744168e-02 0.0000000000000000e+00  -1.5960130888115289e-02 -8.6647792313118019e-02 0.0000000000000000e+00  6.9020754597629011e-03 -8.6695108655848854e-02 0.0000000000000000e+00  3.0144661776597387e-02 -8.6870983527985474e-02 0.0000000000000000e+00  5.4264829586067403e-02 -8.7284501823213026e-02 0.0000000000000000e+00  8.0061249489949068e-02 -8.8426775521996473e-02 0.0000000000000000e+00  1.2683468660256297e-01 -8.3483306786157549e-02 0.0000000000000000e+00  1.3434366405012071e-01 -7.3150201053585995e-02 0.0000000000000000e+00  1.4061937931101151e-01 -6.3205674999880751e-02 0.0000000000000000e+00  1.4657835925270213e-01 -5.3736694443016833e-02 0.0000000000000000e+00  1.5325948312517415e-01 -4.3971516815321569e-02 0.0000000000000000e+00  1.6810748939530482e-01 -2.9859025146478198e-02 0.0000000000000000e+00  1.7079809081281994e-01 -2.8241149814979324e-02 0.0000000000000000e+00  1.7197597986431645e-01 -2.7556138148444410e-02 0.0000000000000000e+00  1.7225752659882210e-01 -2.7279446944483060e-02 0.0000000000000000e+00  1.7204038818332199e-01 -2.7219462677297680e-02 0.0000000000000000e+00  1.7143661375001470e-01 -2.7296806118490276e-02 0.0000000000000000e+00  1.7049763774724749e-01 -2.7393324220351865e-02 0.0000000000000000e+00  1.6934918112233008e-01 -2.7516105773616496e-02 0.0000000000000000e+00  1.6804961894975803e-01 -2.7581402034900147e-02 0.0000000000000000e+00  1.6669314427026174e-01 -2.6312174587853183e-02 0.0000000000000000e+00  1.6662552716863546e-01 -2.4991602617096396e-02 0.0000000000000000e+00  1.6652239930478405e-01 -2.3548935931296637e-02 0.0000000000000000e+00  1.6643525044348736e-01 -2.1906851328888557e-02 0.0000000000000000e+00  1.6642416695491385e-01 -2.0027493551041126e-02 0.0000000000000000e+00  1.6654784768158662e-01 -1.7897406687640782e-02 0.0000000000000000e+00  1.6686558619321842e-01 -1.5512951757146110e-02 0.0000000000000000e+00  1.6745613267455461e-01 -1.2849589950852962e-02 0.0000000000000000e+00  1.6848165696792786e-01 -9.8065431046541786e-03 0.0000000000000000e+00  1.7222633035034191e-01 -3.6608210892992189e-03 0.0000000000000000e+00  1.7288323587049459e-01 -2.4533176171737396e-03 0.0000000000000000e+00  1.7322067868779797e-01 -1.5227556179125577e-03 0.0000000000000000e+00  1.7338268543117222e-01 -7.3406236318629447e-04 0.0000000000000000e+00  1.7315063563583466e-01 0.0000000000000000e+00 0.0000000000000000e+00  1.7290144562897430e-01 0.0000000000000000e+00 0.0000000000000000e+00  1.7274718705808387e-01 0.0000000000000000e+00 0.0000000000000000e+00  1.7272715751019255e-01 0.0000000000000000e+00 0.0000000000000000e+00  1.7284524857356551e-01 0.0000000000000000e+00 0.0000000000000000e+00  1.7308978162772892e-01 0.0000000000000000e+00 0.0000000000000000e+00  1.7344178523272888e-01 0.0000000000000000e+00 0.0000000000000000e+00  1.7389500444941314e-01 0.0000000000000000e+00 0.0000000000000000e+00  1.7441502977555357e-01 0.0000000000000000e+00 0.0000000000000000e+00  1.7500751210892948e-01 0.0000000000000000e+00 0.0000000000000000e+00  1.7566426196171150e-01 0.0000000000000000e+00 0.0000000000000000e+00  1.7637213522159675e-01 0.0000000000000000e+00 0.0000000000000000e+00  1.7720250215633554e-01 1.0139306553905972e-03 0.0000000000000000e+00  1.7738151057290427e-01 2.0316802853966791e-03 0.0000000000000000e+00  1.7769834014681932e-01 3.0560921138056726e-03 0.0000000000000000e+00  1.7814973378054552e-01 4.0917134053302957e-03 0.0000000000000000e+00  1.7874452964880502e-01 5.1374949465713441e-03 0.0000000000000000e+00  1.7949092727267399e-01 6.1926837184202626e-03 0.0000000000000000e+00  1.8037884327249645e-01 7.2485790987458585e-03 0.0000000000000000e+00  1.8142344089765983e-01 8.2818912303071132e-03 0.0000000000000000e+00  1.8261525515430349e-01 9.3076791824248557e-03 0.0000000000000000e+00  1.8396013741196324e-01 1.0306186673197475e-02 0.0000000000000000e+00  1.8542327430266717e-01 1.1262282077522719e-02 0.0000000000000000e+00  1.8701859624201209e-01 1.2172703614628570e-02 0.0000000000000000e+00  1.8872115842864928e-01 1.3020460169761617e-02 0.0000000000000000e+00  1.9053504430295490e-01 1.3827129771694839e-02 0.0000000000000000e+00  1.9241647850478572e-01 1.4554945805909698e-02 0.0000000000000000e+00  1.9438129255491321e-01 1.5218155936688234e-02 0.0000000000000000e+00  1.9638994570575619e-01 1.5800182997061978e-02 0.0000000000000000e+00  1.9842272954819345e-01 1.6303539942920570e-02 0.0000000000000000e+00  2.0047483835628599e-01 1.6730720735427380e-02 0.0000000000000000e+00  2.0251319098812770e-01 1.7084098440053083e-02 0.0000000000000000e+00  2.0453157267856023e-01 1.7371230020481038e-02 0.0000000000000000e+00  2.0649787800926964e-01 1.7606421335487385e-02 0.0000000000000000e+00  2.0841081126414399e-01 1.7809555961148978e-02 0.0000000000000000e+00  2.1028150185079325e-01 1.8000604289290175e-02 0.0000000000000000e+00  2.0827286949282867e-01 -2.4103247084570393e-03 0.0000000000000000e+00  1.9065477976414172e-01 1.2393257514228109e-02 0.0000000000000000e+00  1.6535388562112427e-01 -3.1323808806360633e-02 0.0000000000000000e+00  1.7087826961648572e-01 -7.7260132102964377e-03 0.0000000000000000e+00  2.0741933623962611e-01 4.0258352280774651e-03 0.0000000000000000e+00  1.8411012379569544e-01 9.6546823538631206e-03 0.0000000000000000e+00  2.1173013651893291e-01 -1.0682936617824998e-02 0.0000000000000000e+00  1.7141657213896891e-01 -5.3776603898105756e-03 0.0000000000000000e+00  1.7206623201526447e-01 -6.9159445163916285e-03 0.0000000000000000e+00  1.7247244063911815e-01 -4.9318903750946094e-03 0.0000000000000000e+00  1.7317922987201106e-01 -6.2144453322489088e-03 0.0000000000000000e+00  1.9888119961764833e-01 1.4842448521663609e-02 0.0000000000000000e+00  1.7359923524244317e-01 -4.3940946431597254e-03 0.0000000000000000e+00  1.7433743902081691e-01 -5.4841388975242801e-03 0.0000000000000000e+00  1.7208029348054826e-01 -2.7383538293023348e-02 0.0000000000000000e+00  1.6408758214281718e-01 -3.1001992928089420e-02 0.0000000000000000e+00  1.6707920720586722e-01 -2.8692113945304472e-02 0.0000000000000000e+00  1.7480450018725374e-01 -3.7439905393486825e-03 0.0000000000000000e+00  1.7557954030074333e-01 -4.6822590101778692e-03 0.0000000000000000e+00  1.7508491118950673e-01 -6.6163951985321332e-03 0.0000000000000000e+00  1.7636460044622321e-01 -5.6532065193104592e-03 0.0000000000000000e+00  1.7693474497145320e-01 -3.7943163528587954e-03 0.0000000000000000e+00  1.7778106934896476e-01 -4.6220847313654971e-03 0.0000000000000000e+00  1.7843141295544940e-01 5.0520278563637010e-03 0.0000000000000000e+00  1.6999225038269830e-01 -2.7516699827544933e-01 0.0000000000000000e+00  1.7712952913302754e-01 -6.6044445759017734e-03 0.0000000000000000e+00  1.7863063712176946e-01 -5.4297407999974760e-03 0.0000000000000000e+00  1.7935039165895261e-01 -3.5315937744878332e-03 0.0000000000000000e+00  1.8030994145148693e-01 -4.2126201419870066e-03 0.0000000000000000e+00  2.5557932299007180e-01 -1.6099189113013326e-01 0.0000000000000000e+00  1.7328844110310296e-01 6.6639003975316356e-05 0.0000000000000000e+00  1.6786576918048063e-01 -2.7786250978414268e-02 0.0000000000000000e+00  1.6986585235214666e-01 -2.5592931308685087e-02 0.0000000000000000e+00  1.8107508119032736e-01 -2.3957024640810210e-03 0.0000000000000000e+00  1.8216199650873671e-01 -2.9713279791146116e-03 0.0000000000000000e+00  1.5032873874753372e-01 -5.4849946656660549e-02 0.0000000000000000e+00  1.8294807297996152e-01 -1.2313063356087887e-03 0.0000000000000000e+00  1.8416733033384008e-01 -1.7255721800395508e-03 0.0000000000000000e+00  1.8331689022274508e-01 -3.5079946676323821e-03 0.0000000000000000e+00  1.8547594623865479e-01 -2.1880885137009836e-03 0.0000000000000000e+00  1.8456712701194697e-01 -3.9932487640902863e-03 0.0000000000000000e+00  1.8629944861068923e-01 -4.9605802764802261e-04 0.0000000000000000e+00  9.7674048259126955e-02 -1.1054945028356858e-01 0.0000000000000000e+00  1.7179492350963263e-01 -2.4492897178593945e-02 0.0000000000000000e+00  1.3471877666518126e-01 -8.3930643713365616e-02 0.0000000000000000e+00  1.8778399953342385e-02 -1.0588661141308789e-01 0.0000000000000000e+00  1.6816068821848520e-01 -1.8926575996789256e-02 0.0000000000000000e+00  2.0813249661168637e-01 8.4035646911632105e-03 0.0000000000000000e+00  1.7409840125135695e-01 -2.9087598604812127e-03 0.0000000000000000e+00  1.8179891201296305e-01 -7.1866720400979613e-04 0.0000000000000000e+00  2.2566382072667504e-01 -3.7054876083232283e-02 0.0000000000000000e+00  1.8775260872183328e-01 -9.1434716999796821e-04 0.0000000000000000e+00  1.8852449404919486e-01 7.0121459440975430e-04 0.0000000000000000e+00  -2.2083041716740890e-02 -2.8424057924596341e-01 0.0000000000000000e+00  1.1227405284731376e-01 -2.7862148014505944e-01 0.0000000000000000e+00  2.3588619375254583e-01 -6.3657182298324011e-02 0.0000000000000000e+00  4.8167820218491572e-02 -2.8267126931443781e-01 0.0000000000000000e+00  -1.3029479659379845e-01 -1.8680270034890026e-01 0.0000000000000000e+00  2.1715720106547798e-01 -2.0365868440177327e-02 0.0000000000000000e+00  1.7305914254386834e-01 -2.2426243709585805e-02 0.0000000000000000e+00  1.7568435894068146e-01 -2.1266386566718767e-02 0.0000000000000000e+00  2.4709140741331392e-01 -1.0796737806944469e-01 0.0000000000000000e+00  1.7528675718703265e-01 -2.3474019170127619e-02 0.0000000000000000e+00  1.7786932746744516e-01 -7.5019113377492322e-03 0.0000000000000000e+00  1.9010217017117875e-01 3.0281912435147531e-04 0.0000000000000000e+00  1.9080665420604817e-01 1.8567397861208046e-03 0.0000000000000000e+00  1.8923916171868482e-01 2.2490988339326440e-03 0.0000000000000000e+00  1.7163435821902948e-01 -2.3488541582647585e-02 0.0000000000000000e+00  1.7947067381155157e-01 -2.0214813186906263e-02 0.0000000000000000e+00  1.7942069308252523e-01 -1.8204229358756929e-02 0.0000000000000000e+00  1.9146907371847260e-01 3.3647271923684086e-03 0.0000000000000000e+00  1.7999904370007855e-01 -2.2660751796283352e-02 0.0000000000000000e+00  -4.8715108977877113e-02 -1.0479817566949960e-01 0.0000000000000000e+00  1.8334478459308243e-01 -1.7196547963030318e-02 0.0000000000000000e+00  1.8292866331290153e-01 -1.5347603888565294e-02 0.0000000000000000e+00  1.8991247528552094e-01 3.7515692607066184e-03 0.0000000000000000e+00  1.9247420370407636e-01 1.4571875258497513e-03 0.0000000000000000e+00  1.9180184655769264e-01 -9.2633370163520691e-05 0.0000000000000000e+00  1.7233085165178191e-01 -2.9002754554979127e-03 0.0000000000000000e+00  1.9210275541475952e-01 4.8497478492379262e-03 0.0000000000000000e+00  1.8688509918859297e-01 -1.4433013148504394e-02 0.0000000000000000e+00  1.8616623322335707e-01 -1.2729934838694456e-02 0.0000000000000000e+00  1.8276060149145412e-01 -1.3690749829540896e-02 0.0000000000000000e+00  1.7471895598475859e-01 4.7138858654762183e-04 0.0000000000000000e+00  2.5799672008808333e-01 -2.1963499624340702e-01 0.0000000000000000e+00  1.7099060389638976e-01 -2.6456049046134134e-02 0.0000000000000000e+00  2.0512830348977132e-01 1.5984160834761018e-02 0.0000000000000000e+00  1.9425042124633349e-01 1.0465500777788904e-03 0.0000000000000000e+00  1.9362888075411683e-01 -4.9342588740910857e-04 0.0000000000000000e+00  1.8571381576112395e-01 -1.1190209645309356e-02 0.0000000000000000e+00  1.8913522674964750e-01 -1.0350092739176487e-02 0.0000000000000000e+00  1.8275179509571840e-01 -1.2129026450079300e-02 0.0000000000000000e+00  1.9055927534896697e-01 5.2315963750655271e-03 0.0000000000000000e+00  1.9614316228469833e-01 6.1305406963228011e-04 0.0000000000000000e+00  1.9665247128105701e-01 2.1027397261527466e-03 0.0000000000000000e+00  1.9555677202614993e-01 -9.3074841375089077e-04 0.0000000000000000e+00  1.9271466372588672e-01 6.3322369764550876e-03 0.0000000000000000e+00  1.9430710652531277e-01 5.9283425729854981e-03 0.0000000000000000e+00  1.3393607098922336e-01 -9.8909405698641761e-02 0.0000000000000000e+00  1.4788072167101460e-01 -8.9857061737860733e-02 0.0000000000000000e+00  1.4797334043598023e-01 -1.0535690388239077e-01 0.0000000000000000e+00  1.6073313403428222e-01 -9.5885715138774683e-02 0.0000000000000000e+00  1.6166870377177892e-01 -1.1164470797787980e-01 0.0000000000000000e+00  1.4789906030507605e-01 -1.2326511822224967e-01 0.0000000000000000e+00  1.6253922871415202e-01 -1.2928234258663759e-01 0.0000000000000000e+00  1.4826506130195782e-01 -1.4184527624162799e-01 0.0000000000000000e+00  1.6356538586528480e-01 -1.4790219063421281e-01 0.0000000000000000e+00  1.4913645145233548e-01 -1.6080665592264237e-01 0.0000000000000000e+00  1.6495221274900093e-01 -1.6691024549887970e-01 0.0000000000000000e+00  1.7383173992797160e-01 -1.0120277825428727e-01 0.0000000000000000e+00  1.7119273151905576e-01 -8.4985173865784649e-02 0.0000000000000000e+00  1.5040330530026794e-01 -1.7995284494378599e-01 0.0000000000000000e+00  1.3345245602631256e-01 -1.7398708635696333e-01 0.0000000000000000e+00  1.6631563454368883e-01 -1.8649810282172671e-01 0.0000000000000000e+00  1.7822760019996908e-01 -1.5438231581627990e-01 0.0000000000000000e+00  1.9306280174271562e-01 -2.0160231687110126e-03 0.0000000000000000e+00  1.9526718169787297e-01 -2.3907921698813222e-03 0.0000000000000000e+00  1.8479473845376146e-01 -9.1552830368657245e-02 0.0000000000000000e+00  1.8328870567790786e-01 -7.7591463939643071e-02 0.0000000000000000e+00  1.9797832732556092e-01 1.5990244960506386e-04 0.0000000000000000e+00  1.9118751383434229e-01 6.7104880394423163e-03 0.0000000000000000e+00  1.8908995894720088e-01 5.5909838010398949e-03 0.0000000000000000e+00  1.7270149697504966e-01 -3.9527363624624272e-04 0.0000000000000000e+00  1.9488229823536476e-01 7.4245847857908444e-03 0.0000000000000000e+00  1.9650060236831857e-01 6.9878637262414892e-03 0.0000000000000000e+00  1.7645041604932815e-01 -8.7732685847154122e-03 0.0000000000000000e+00  1.7705656145922360e-01 -9.7427912874540612e-03 0.0000000000000000e+00  1.7573175755665293e-01 -1.1109407034018427e-02 0.0000000000000000e+00  1.7618838653367144e-01 -1.2135034114984134e-02 0.0000000000000000e+00  1.7497613863106790e-01 -1.3572699972100574e-02 0.0000000000000000e+00  1.7527662600209323e-01 -1.4640001223659774e-02 0.0000000000000000e+00  1.7420842180245527e-01 -1.6105948576226596e-02 0.0000000000000000e+00  1.7392234214577978e-01 -1.4936487038537697e-02 0.0000000000000000e+00